# vtk DataFile Version 3.0
SiWiRVisFile
ASCII
DATASET UNSTRUCTURED_GRID
POINTS 1600 DOUBLE
76.6681 100 72.2973
75.938 100 73.3264
76.9352 100 73.816
78.7182 100 73.4998
79.8366 100 73.8462
80.9621 100 74.4403
82.9736 100 73.9744
84.0445 100 74.5437
85.1925 100 74.7428
84.0864 100 73.4471
92.2325 100 70.1746
91.2425 100 69.6547
91.2424 100 70.7883
90.0181 100 69.6482
86.3297 100 68.7452
90.3165 100 60.579
91.4217 100 60.2968
92.5558 100 58.8231
89.1485 100 53.9679
94.4808 100 58.0788
105.442 100 39.5298
106.184 100 38.815
106.124 100 37.8036
107.291 100 38.0483
105.119 100 37.1133
111.891 100 38.4295
110.794 100 32.113
111.65 100 30.4954
110.918 100 33.2203
111.842 100 32.6735
112.875 100 32.5453
114.127 100 32.8152
112.593 100 31.5188
113.66 100 31.762
113.099 100 38.3614
119.28 100 37.2419
116.98 100 37.9645
118.253 100 37.5957
117.909 100 38.6337
119.15 100 39.5712
129.469 100 57.7831
135.344 100 53.9679
131.633 100 58.9851
133.035 100 61.1085
134.318 100 60.57
135.692 100 69.5611
134.727 100 69.2255
134.293 100 71.3462
133.557 100 69.1893
133.499 100 70.6165
140.534 100 73.4499
139.361 100 74.8067
140.453 100 74.5644
141.478 100 74.1837
143.648 100 74.4134
144.624 100 74.0697
145.739 100 73.5829
147.576 100 73.5237
148.728 100 73.1603
147.963 100 72.3346
74.8911 100 73.8428
75.8591 100 74.4305
77.9085 100 74.2556
79.0515 100 74.5659
80.0489 100 75.1493
81.9947 100 74.8137
83.0249 100 75.1589
84.2561 100 75.6114
85.2308 100 75.9002
86.4254 100 75.9304
87.5106 100 76.2895
91.9326 100 68.4743
90.079 100 70.6898
90.7754 100 66.5203
91.6003 100 62.4534
90.7162 100 68.4694
92.4683 100 60.0027
93.8103 100 59.1254
94.8939 100 59.082
97.3916 100 58.0066
105.116 100 38.3296
97.2708 100 45.2322
106.466 100 47.7557
110.455 100 36.236
108.203 100 37.2678
110.355 100 38.6026
110.062 100 37.4832
109.371 100 36.4906
107.394 100 29.9012
111.793 100 33.7854
113.065 100 33.636
117.303 100 29.9474
113.658 100 35.3426
115.49 100 36.7957
114.782 100 38.4883
115.932 100 38.1728
114.181 100 36.4966
118.149 100 47.5425
127.222 100 45.2321
119.01 100 38.433
126.607 100 58.0386
129.041 100 58.7145
130.582 100 58.2794
133.024 100 59.917
133.138 100 67.9867
132.513 100 62.0309
132.808 100 65.7027
134.454 100 70.1828
132.518 100 69.141
137.295 100 76.5242
138.048 100 75.5029
139.171 100 75.8991
140.284 100 75.6468
141.451 100 75.2458
142.508 100 74.7989
144.541 100 75.181
145.53 100 74.6632
146.664 100 74.3181
148.467 100 74.393
149.741 100 73.6735
74.9985 100 75.1081
76.0306 100 75.5701
76.9929 100 74.98
78.2134 100 75.3109
79.1947 100 75.8303
81.0613 100 75.5598
82.3043 100 75.9492
83.3964 100 76.5317
84.6352 100 76.8001
85.7233 100 76.9831
86.7858 100 77.0926
87.3009 100 78.0167
89.2832 100 76.6443
91.3833 100 67.4346
91.7386 100 64.5459
93.3184 100 63.5812
92.8341 100 61.1839
93.5286 100 60.4098
94.5236 100 60.1538
96.5111 100 57.2844
98.2241 100 56.9074
104.408 100 49.0244
105.348 100 48.4062
106.571 100 48.7606
100.962 100 45.6644
107.546 100 47.9954
107.211 100 46.9386
105.298 100 47.045
110.612 100 34.9804
111.707 100 35.1903
112.627 100 34.589
114.074 100 34.2094
120.804 100 46.46
117.374 100 46.6759
117.834 100 48.492
121.337 100 47.4972
118.115 100 49.514
118.924 100 48.3834
120.262 100 49.827
125.747 100 57.0255
128.075 100 57.7374
130.351 100 59.3939
131.787 100 60.073
131.765 100 61.1867
132.536 100 63.4425
132.173 100 64.5265
132.859 100 66.7833
135.384 100 76.8014
136.83 100 77.4903
138.018 100 77.3533
139.089 100 77.038
140.235 100 76.7029
141.328 100 76.4384
142.321 100 75.9387
143.428 100 75.4777
145.3 100 75.8494
146.339 100 75.34
147.514 100 74.9873
148.433 100 75.5629
149.463 100 74.8971
75.1582 100 76.241
76.2587 100 76.7581
77.2499 100 76.1108
78.2823 100 76.4826
80.2165 100 76.3187
81.3055 100 76.6319
82.3827 100 77.0891
83.7194 100 77.5788
85.0148 100 77.8006
86.2254 100 77.9963
86.9115 100 79.0536
88.7231 100 78.1405
88.1573 100 77.2331
92.5371 100 67.132
91.9378 100 66.0208
93.0122 100 65.0286
94.1974 100 62.3352
92.9282 100 62.2605
94.169 100 61.2507
95.2895 100 61.0355
95.8488 100 59.5156
98.5086 100 58.1717
104.443 100 47.8482
105.309 100 53.3869
105.79 100 49.5133
105.796 100 51.1448
108.35 100 50.0474
110.562 100 50.4294
108.359 100 46.8595
111.386 100 36.8163
113.421 100 37.292
116.511 100 47.5895
115.135 100 48.8118
115.792 100 49.7558
118.261 100 50.5017
119.163 100 49.7595
119.331 100 50.8278
119.895 100 47.9111
125.38 100 58.2398
128.136 100 59.8174
129.278 100 60.9966
130.313 100 61.5684
131.427 100 62.2463
131.399 100 63.2734
131.139 100 64.409
131.895 100 66.2998
131.944 100 67.781
136.291 100 76.1103
136.472 100 78.6197
137.548 100 78.3405
138.813 100 78.0996
139.932 100 77.8527
141.057 100 77.4724
142.096 100 77.2035
143.206 100 76.6397
144.258 100 76.3177
146.239 100 76.5143
147.363 100 76.0396
148.318 100 76.8186
149.46 100 76.053
75.3875 100 77.3239
76.2905 100 77.8409
77.3666 100 77.3801
79.2168 100 76.9461
80.4827 100 77.3365
81.5433 100 77.8841
82.5572 100 78.2852
83.374 100 79.0336
84.5095 100 78.7642
85.7055 100 79.0647
86.6345 100 80.685
89.5475 100 78.878
90.2608 100 76.3145
94.5542 100 65.393
93.0336 100 66.1704
95.1787 100 63.26
96.2758 100 63.0829
95.6159 100 62.1141
96.3547 100 60.5414
97.2874 100 59.9176
96.5669 100 58.7391
102.753 100 57.0579
105.003 100 51.8038
107.013 100 51.1571
107.021 100 50.0925
108.235 100 51.1832
109.305 100 51.1923
110.559 100 51.544
107.698 100 49.0937
111.149 100 39.7246
112.502 100 40.1056
116.306 100 48.6141
114.325 100 51.2858
115.256 100 50.7877
116.317 100 50.983
117.178 100 50.2627
117.313 100 51.3658
117.518 100 52.4459
121.384 100 56.3043
127.56 100 58.7451
126.903 100 59.7751
128.269 100 60.9493
129.218 100 62.069
130.402 100 62.6942
129.259 100 63.1368
130.882 100 66.8091
130.378 100 65.5322
135.816 100 77.8007
135.141 100 78.6319
137.938 100 80.3228
138.123 100 79.2778
139.502 100 78.9185
140.8 100 78.5634
141.87 100 78.3713
142.929 100 77.8223
144.085 100 77.4571
145.247 100 76.8965
147.213 100 77.1995
148.177 100 77.9698
149.234 100 77.2746
75.4032 100 78.5561
76.493 100 79.0335
77.4842 100 78.4111
78.4311 100 77.7945
79.473 100 78.0594
80.4881 100 78.4581
81.4721 100 79.0209
82.4158 100 79.5492
83.3541 100 80.1958
84.484 100 79.9022
85.52 100 80.28
87.9265 100 78.8459
90.203 100 79.7684
88.5799 100 75.7574
91.1264 100 75.5777
94.3591 100 64.1593
96.4743 100 64.1616
97.3269 100 63.4896
97.0275 100 62.2131
97.3468 100 60.9887
98.1118 100 59.198
100.864 100 58.3913
104.169 100 55.1955
104.932 100 54.4187
105.866 100 52.528
107.275 100 52.5255
108.621 100 53.72
108.836 100 52.3591
112.015 100 50.8347
111.476 100 49.5668
114.689 100 49.9302
113.139 100 52.5341
115.321 100 51.8858
115.718 100 53.2312
116.377 100 52.196
118.454 100 51.7877
118.639 100 52.9245
121.319 100 55.142
123.937 100 59.418
126.067 100 59.0558
127.059 100 60.853
128.186 100 62.1524
127.606 100 63.0666
128.214 100 64.0527
129.771 100 64.0517
134.17 100 75.2867
135.414 100 74.1932
134.709 100 79.5353
136.977 100 79.6404
139.078 100 79.9527
140.172 100 79.7466
141.062 100 80.6327
141.721 100 79.6363
142.754 100 78.985
143.943 100 78.5726
144.978 100 78.0896
146.193 100 77.6207
147.096 100 78.3684
148.053 100 79.1174
149.211 100 78.4102
74.2479 100 79.1429
75.3098 100 79.6643
77.5042 100 79.5276
78.5129 100 78.9164
79.5851 100 79.2673
79.4868 100 82.2278
81.3632 100 80.0844
82.376 100 80.6325
83.3258 100 81.2716
84.4587 100 81.1507
85.6011 100 81.4098
88.6807 100 79.5979
90.7001 100 80.8289
89.9839 100 75.3235
95.6646 100 65.8771
95.3063 100 64.4942
96.6723 100 65.2204
98.5328 100 63.8586
98.1047 100 61.8518
98.4508 100 60.3447
99.7027 100 58.9565
102.016 100 57.9396
103.809 100 56.6897
106.54 100 53.4149
109.241 100 54.794
109.532 100 53.203
108.117 100 56.6955
110.596 100 52.9092
107.283 100 57.4259
108.775 100 57.7027
116.476 100 57.6067
116.307 100 56.5429
114.64 100 52.7081
115.305 100 56.8933
114.986 100 54.5425
116.143 100 54.3751
116.906 100 53.3563
120.316 100 56.3284
122.044 100 57.727
125.103 100 59.503
125.883 100 60.3277
127.049 100 62.0107
126.592 100 62.9289
127.223 100 65.2081
129.361 100 65.0089
129.393 100 66.0808
135.192 100 75.6845
131.076 100 82.0716
135.903 100 79.9848
138.705 100 81.1178
139.853 100 80.7892
140.568 100 81.7489
142.378 100 80.7876
143.153 100 79.999
145.034 100 80.4833
144.891 100 79.2399
145.901 100 78.701
147.026 100 79.579
149.06 100 79.6655
150.189 100 78.976
73.9433 100 80.2337
75.1366 100 80.7483
76.3408 100 80.0343
77.4549 100 80.6476
78.6304 100 79.9756
78.5692 100 81.2416
80.3356 100 80.7102
81.4128 100 81.1266
82.5065 100 81.862
83.9963 100 82.2157
85.1028 100 82.3433
86.3073 100 82.4916
87.6085 100 79.9452
87.2724 100 81.4775
87.465 100 82.9002
91.3055 100 79.5886
96.5403 100 66.5948
97.5354 100 64.5631
99.9921 100 62.3737
99.0195 100 62.8646
99.1272 100 61.0891
99.6604 100 60.1308
104.865 100 57.3829
106.005 100 54.3987
107.719 100 54.3354
109.18 100 56.083
108.091 100 55.5562
105.659 100 58.1379
106.704 100 58.4412
109.446 100 60.1094
115.42 100 58.6373
119.341 100 58.2213
119.63 100 59.4272
116.592 100 55.3928
115.537 100 55.5031
117.206 100 54.5018
117.951 100 53.7057
120.942 100 57.3284
124.376 100 60.5121
126.046 100 61.5867
125.501 100 62.6311
125.746 100 63.6472
127.006 100 64.0718
128.353 100 65.5221
131.506 100 81.1286
136.815 100 82.4127
137.519 100 81.4938
136.753 100 80.7521
137.942 100 82.5796
138.979 100 82.8403
139.448 100 81.9159
141.797 100 81.8876
143.088 100 81.6516
143.803 100 80.8432
145.706 100 81.4952
145.863 100 79.8019
146.692 100 80.8285
148.094 100 80.1874
149.085 100 80.9178
150.007 100 80.3964
74.1443 100 81.2551
75.2435 100 82.3539
76.449 100 81.1844
77.4326 100 81.8556
78.04 100 83.7684
76.6302 100 84.4101
78.3262 100 82.3761
80.4773 100 81.7695
81.5305 100 82.5634
80.4814 100 82.993
82.5952 100 83.2781
84.6212 100 83.3271
85.7412 100 83.3898
86.7835 100 83.7086
88.6773 100 83.2084
90.576 100 78.7327
97.8481 100 67.4064
97.5183 100 65.9749
99.649 100 63.7526
100.528 100 64.4894
[...]
POINT_DATA 1600
SCALARS mass double
LOOKUP_TABLE default
1
1
1
1
1
1
1
1
1
1
1
1
1
1
1
1
1
1
1
1
1
1
1
1
1
1
1
1
1
1
1
1
1
1
1
1
1
1
1
1
1
1
1
1
1
1
1
1
1
1
1
1
1
1
1
1
1
1
1
1
1
1
1
1
1
1
1
1
1
1
1
1
1
1
1
1
1
1
1
1
1
1
1
1
1
1
1
1
1
1
1
1
1
1
1
1
1
1
1
1
1
1
1
1
1
1
1
1
1
1
1
1
1
1
1
1
1
1
1
1
1
1
1
1
1
1
1
1
1
1
1
1
1
1
1
1
1
1
1
1
1
1
1
1
1
1
1
1
1
1
1
1
1
1
1
1
1
1
1
1
1
1
1
1
1
1
1
1
1
1
1
1
1
1
1
1
1
1
1
1
1
1
1
1
1
1
1
1
1
1
1
1
1
1
1
1
1
1
1
1
1
1
1
1
1
1
1
1
1
1
1
1
1
1
1
1
1
1
1
1
1
1
1
1
1
1
1
1
1
1
1
1
1
1
1
1
1
1
1
1
1
1
1
1
1
1
1
1
1
1
1
1
1
1
1
1
1
1
1
1
1
1
1
1
1
1
1
1
1
1
1
1
1
1
1
1
1
1
1
1
1
1
1
1
1
1
1
1
1
1
1
1
1
1
1
1
1
1
1
1
1
1
1
1
1
1
1
1
1
1
1
1
1
1
1
1
1
1
1
1
1
1
1
1
1
1
1
1
1
1
1
1
1
1
1
1
1
1
1
1
1
1
1
1
1
1
1
1
1
1
1
1
1
1
1
1
1
1
1
1
1
1
1
1
1
1
1
1
1
1
1
1
1
1
1
1
1
1
1
1
1
1
1
1
1
1
1
1
1
1
1
1
1
1
1
1
1
1
1
1
1
1
1
1
1
1
1
1
1
1
1
1
1
1
1
1
1
1
1
1
1
1
1
1
1
1
1
1
1
1
1
1
1
1
1
1
1
1
1
1
1
1
1
1
1
1
1
1
1
1
1
1
1
1
1
1
1
1
1
1
1
1
1
1
1
1
1
1
1
1
1
1
1
1
1
1
1
1
1
1
1
1
1
1
1
1
1
1
1
1
1
1
1
1
1
1
1
1
1
1
1
1
1
1
1
1
1
1
1
1
1
1
1
1
1
1
1
1
1
1
1
1
1
1
1
1
1
1
1
1
1
1
1
1
1
1
1
1
1
1
1
1
1
1
1
1
1
1
1
1
1
1
1
1
1
1
1
1
1
1
1
1
1
1
1
1
1
1
1
1
1
1
1
1
1
1
1
1
1
1
1
1
1
1
1
1
1
1
1
1
1
1
1
1
1
1
1
1
1
1
1
1
1
1
1
1
1
1
1
1
1
1
1
1
1
1
1
1
1
1
1
1
1
1
1
1
1
1
1
1
1
1
1
1
1
1
1
1
1
1
1
1
1
1
1
1
1
1
1
1
1
1
1
1
1
1
1
1
1
1
1
1
1
1
1
1
1
1
1
1
1
1
1
1
1
1
1
1
1
1
1
1
1
1
1
1
1
1
1
1
1
1
1
1
1
1
1
1
1
1
1
1
1
1
1
1
1
1
1
1
1
1
1
1
1
1
1
1
1
1
1
1
1
1
1
1
1
1
1
1
1
1
1
1
1
1
1
1
1
1
1
1
1
1
1
1
1
1
1
1
1
1
1
1
1
1
1
1
1
1
1
1
1
1
1
1
1
1
1
1
1
1
1
1
1
1
1
1
1
1
1
1
1
1
1
1
1
1
1
1
1
1
1
1
1
1
1
1
1
1
1
1
1
1
1
1
1
1
1
1
1
1
1
1
1
1
1
1
1
1
1
1
1
1
1
1
1
1
1
1
1
1
1
1
1
1
1
1
1
1
1
1
1
1
1
1
1
1
1
1
1
1
1
1
1
1
1
1
1
1
1
1
1
1
1
1
1
1
1
1
1
1
1
1
1
1
1
1
1
1
1
1
1
1
1
1
1
1
1
1
1
1
1
1
1
1
1
1
1
1
1
1
1
1
1
1
1
1
1
1
1
1
1
1
1
1
1
1
1
1
1
1
1
1
1
1
1
1
1
1
1
1
1
1
1
1
1
1
1
1
1
1
1
1
1
1
1
1
1
1
1
1
1
1
1
1
1
1
1
1
1
1
1
1
1
1
1
1
1
1
1
1
1
1
1
1
1
1
1
1
1
1
1
1
1
1
1
1
1
1
1
1
1
1
1
1
1
1
1
1
1
1
1
1
1
1
1
1
1
1
1
1
1
1
1
1
1
1
1
1
1
1
1
1
1
1
1
1
1
1
1
1
1
1
1
1
1
1
1
1
1
1
1
1
1
1
1
1
1
1
1
1
1
1
1
1
1
1
1
1
1
1
1
1
1
1
1
1
1
1
1
1
1
1
1
1
1
1
1
1
1
1
1
1
1
1
1
1
1
1
1
1
1
1
1
1
1
1
1
1
1
1
1
1
1
1
1
1
1
1
1
1
1
1
1
1
1
1
1
1
1
1
1
1
1
1
1
1
1
1
1
1
1
1
1
1
1
1
1
1
1
1
1
1
1
1
1
1
1
1
1
1
1
1
1
1
1
1
1
1
1
1
1
1
1
1
1
1
1
1
1
1
1
1
1
1
1
1
1
1
1
1
1
1
1
1
1
1
1
1
1
1
1
1
1
1
1
1
1
1
1
1
1
1
1
1
1
1
1
1
1
1
1
1
1
1
1
1
1
1
1
1
1
1
1
1
1
1
1
1
1
1
1
1
1
1
1
1
1
1
1
1
1
1
1
1
1
1
1
1
1
1
1
1
1
1
1
1
1
1
1
1
1
1
1
1
1
1
1
1
1
1
1
1
1
1
1
1
1
1
1
1
1
1
1
1
1
1
1
1
1
1
1
1
1
1
1
1
1
1
1
1
1
1
1
1
1
1
1
1
1
1
1
1
1
1
1
1
1
1
1
1
1
1
1
1
1
1
1
1
1
1
1
1
1
1
1
1
1
1
1
1
1
1
1
1
1
1
1
1
1
1
1
1
1
1
1
1
1
1
1
1
1
1
1
1
1
1
1
1
1
1
1
1
1
1
1
1
1
1
1
1
1
1
1
1
1
1
1
1
1
1
1
1
1
1
1
1
1
1
1
1
1
1
1
1
1
1
1
1
1
1
1
1
1
1
1
1
1
1
1
1
1
1
1
1
1
1
1
1
1
1
1
1
1
1
1
1
1
1
1
1
1
1
1
1
1
1
1
1
1
1
1
1
1
1
1
1
1
1
1
1
1
1
1
1
1
1
1
1
1
1
1
1
1
1
1
1
1
1
1
1
1
1
1
1
1
1
1
1
1
1
1
1
1
1
1
1
1
1
1
1
1
1
1
1
1
1
1
1
1
1
1
1
1
1
1
1
1
1
1
1
1
1
1
1
1
1
1
1
1
1
1
1
1
1
1
1
1
1
1
1
1
1
1
1
1
1
1
1
1
1
1
1
1
1
1
1
1
1
1
1
1
1
1
1
1
1
1
1
1
1
1
1
1
1
1
1
1
1
1
1
1
1
1
1
1
1
1
1
1
1
1
1
1
1
1
1
1
1
VECTORS force double
-5.96286 0 15.5023
-3.03248 0 -10.4019
-30.2621 0 2.11055
9.57202 0 0.308695
23.7754 0 -4.1141
-24.4502 0 -1.64007
12.3519 0 19.5414
-14.0323 0 -0.0312796
-17.1309 0 14.5203
-9.28463 0 -0.574395
-7.35885 0 2.27213
-16.2418 0 -13.4639
-3.67753 0 -10.468
16.5583 0 -54.9276
0 0 0
4.90193 0 -0.890025
-13.626 0 6.0828
11.4679 0 15.2724
0 0 0
-11.3848 0 -2.48965
-49.4941 0 31.9957
51.9409 0 37.1467
-8.04122 0 -94.1866
-11.1226 0 -3.60934
10.3958 0 19.3792
3.84478 0 3.15058
12.0114 0 1.49943
5.47645 0 8.66243
-59.6917 0 -10.9054
-30.7411 0 -17.7765
62.6805 0 25.9087
-23.4854 0 5.9829
-29.3768 0 -27.0901
14.7383 0 6.45505
-9.84195 0 3.44242
10.3068 0 7.82879
39.0773 0 -5.54542
-19.5616 0 -0.868982
-5.06075 0 9.38836
-4.61522 0 -9.12286
33.1084 0 -60.1616
0 0 0
-18.2128 0 -9.97224
8.54694 0 -43.0547
-14.4641 0 0.390161
64.7873 0 29.8512
-48.778 0 -151.17
15.8357 0 2.82247
64.7592 0 6.80981
-53.07 0 -5.91594
7.9743 0 7.93202
5.39073 0 6.44522
2.18772 0 4.19271
11.785 0 -32.6312
-55.8152 0 17.8293
53.3746 0 -32.751
-0.0377564 0 5.9582
13.0116 0 8.92764
-11.0397 0 17.9281
-2.78145 0 13.1015
12.5243 0 10.1056
28.2028 0 4.55195
21.0041 0 15.4986
-22.3435 0 35.016
-3.41833 0 -18.1329
-3.12269 0 8.70053
51.145 0 -17.8885
-87.6326 0 -2.10755
106.756 0 12.928
-11.6087 0 22.3892
19.2828 0 -11.0598
-18.2965 0 -3.88221
15.3722 0 46.1406
8.09973 0 -10.636
11.8204 0 -2.69581
18.5379 0 7.84434
25.186 0 -2.4182
-18.2496 0 11.5951
-16.7011 0 0.426881
13.2429 0 -4.84149
15.2854 0 1.92813
0 0 0
-36.8841 0 -91.445
-4.51757 0 -8.6217
-0.459478 0 2.83139
8.49741 0 -1.28913
3.44889 0 -15.3485
-1.44033 0 14.2035
0 0 0
58.6875 0 40.7399
18.1842 0 -37.3889
0 0 0
-2.32491 0 -7.52162
-8.05053 0 6.76016
6.9466 0 -6.44385
-36.774 0 1.04034
10.2447 0 -13.3819
33.773 0 -113.753
0 0 0
2.61511 0 -7.53487
-7.59081 0 7.5645
-38.9152 0 68.767
-5.12923 0 7.16885
-9.46298 0 15.4814
-15.1311 0 6.79053
-14.5305 0 35.3376
3.32384 0 -32.6771
2.52673 0 106.131
-48.2745 0 -16.2751
26.0875 0 -27.6102
8.1572 0 13.8131
1.85403 0 12.2616
7.74569 0 -28.4299
-20.369 0 36.2588
-1.2613 0 4.66875
-88.3122 0 -54.5687
-7.31635 0 2.16053
-13.3939 0 -40.8848
-4.73675 0 -13.7813
-12.4234 0 13.73
-3.89161 0 0.410095
16.9945 0 2.48251
6.56877 0 -6.28571
-19.564 0 19.7809
-3.60923 0 -3.59834
24.1775 0 -3.54692
-28.5674 0 22.9611
-1.57458 0 -24.6661
-47.9117 0 -15.2564
-4.57961 0 -31.0963
17.5632 0 -48.5986
18.4833 0 -23.4352
-64.1724 0 29.2546
15.6459 0 17.9628
11.1647 0 8.88231
8.51825 0 -1.37535
-31.521 0 10.935
-53.2268 0 -61.9221
70.7996 0 -19.4424
5.35826 0 9.93684
-5.23715 0 19.1567
7.99724 0 -8.31599
51.067 0 14.3539
30.7813 0 85.8357
0 0 0
0.846445 0 2.79764
7.01934 0 -7.13618
3.20491 0 21.5333
-1.12394 0 8.84765
-5.88234 0 1.12386
-2.28681 0 33.4044
-16.7825 0 -0.663232
2.46913 0 9.61976
-2.56132 0 16.5945
-63.9556 0 82.8621
-9.39024 0 -5.85373
-32.9398 0 -94.4337
-12.6913 0 19.7405
-0.824078 0 5.63145
3.8261 0 20.2143
7.55546 0 11.0527
6.75512 0 -7.5985
11.5909 0 5.92823
8.331 0 0.687847
-12.658 0 -5.59095
53.0499 0 6.93827
13.1666 0 44.6549
0.219103 0 -12.6685
21.2809 0 11.1453
-10.5822 0 -11.4607
20.6033 0 -11.7859
-20.2159 0 42.7978
-15.0381 0 -51.3444
16.3757 0 2.32498
-4.691 0 30.814
83.5197 0 11.309
33.4199 0 62.3191
-7.04869 0 -29.8194
16.9562 0 11.2775
-7.87203 0 2.09928
4.86005 0 -0.706792
52.403 0 -62.1263
-17.3214 0 -4.87434
-42.9202 0 -9.38209
-17.592 0 -44.8925
30.7065 0 4.23871
0.0155845 0 6.56674
9.96948 0 17.4252
9.1124 0 28.9226
-47.3072 0 39.7936
-74.6569 0 10.7696
27.3027 0 0.222691
-19.7988 0 -27.2663
-27.9521 0 12.3911
-8.55837 0 9.10303
-4.87634 0 -0.971509
0.832615 0 22.0706
9.44918 0 24.8525
16.6819 0 8.11206
-1.90047 0 -10.3591
16.1312 0 54.8522
3.74184 0 -13.0493
-18.0498 0 -12.2458
-19.7298 0 62.587
-10.8952 0 4.92151
65.4612 0 -37.1433
-12.8146 0 4.92759
7.94332 0 -5.53761
-11.8867 0 7.88029
3.14196 0 7.2467
-4.52666 0 4.58885
22.7952 0 -51.6735
10.8568 0 13.8043
10.0065 0 3.24545
20.3623 0 136.124
0.0842089 0 -16.9822
-0.186191 0 17.8791
20.4207 0 -9.82765
-5.08548 0 -20.9078
-14.5496 0 -6.49049
102.896 0 -11.9063
-4.1551 0 6.88834
-10.3004 0 -69.274
-0.826142 0 77.8375
-61.8038 0 -9.46097
-32.0849 0 2.26898
15.4165 0 -10.4578
-23.7071 0 0.812198
16.6929 0 34.2751
4.17663 0 8.28657
-18.8563 0 8.65586
-1.27966 0 -12.9951
-31.1237 0 40.5131
-0.757156 0 -33.0868
-12.7368 0 14.8233
11.1071 0 -10.5633
43.5406 0 -28.039
-9.25154 0 39.738
-78.2323 0 -46.5596
-15.0835 0 7.21675
-87.6815 0 20.2005
62.9876 0 56.9758
-12.7715 0 -74.2248
57.8247 0 31.0804
-11.6401 0 56.5479
-27.5931 0 -16.0965
3.98588 0 2.56971
29.5992 0 2.90129
-6.89558 0 15.2195
-3.74464 0 -3.29059
-64.4521 0 -73.2064
-54.9125 0 3.41849
78.9211 0 52.9134
9.11622 0 -14.8271
14.2255 0 -20.4372
-10.1972 0 5.38965
0.974846 0 -18.5964
0.486143 0 15.9465
-23.9995 0 -4.78281
-7.22221 0 -21.3896
24.4364 0 -17.0497
-3.57339 0 5.04092
-46.9607 0 45.6306
1.81785 0 36.9356
5.41926 0 -46.4782
-35.0792 0 4.45113
32.2958 0 7.73262
-9.00041 0 8.12219
-13.3421 0 15.9868
5.7171 0 -10.7103
-8.03977 0 -5.54574
-17.7839 0 60.6442
-21.583 0 21.3902
56.6884 0 22.9512
-17.5472 0 3.077
-1.51099 0 -13.9731
34.675 0 9.70338
14.9949 0 9.21856
26.459 0 -5.19155
-7.2309 0 13.4967
13.7606 0 -15.1673
-110.075 0 8.14827
71.0754 0 -12.0764
-16.8695 0 6.75977
-22.4007 0 -15.6378
3.0524 0 -7.0786
3.96056 0 -4.04346
-42.2151 0 -32.0843
97.9971 0 -57.9685
-21.3818 0 32.46
16.872 0 -26.0244
2.42874 0 -11.0908
-22.6408 0 18.9192
-0.967565 0 -27.0116
55.9574 0 38.2327
-16.4703 0 -21.1225
-39.493 0 73.6859
14.7405 0 -3.61184
-6.08646 0 -11.1994
57.8736 0 31.6094
5.40913 0 -7.03575
3.62514 0 -108.897
-3.79144 0 55.3853
-22.5853 0 -20.0318
9.94945 0 6.62736
15.3271 0 8.38179
-5.69532 0 -44.278
-0.698419 0 -5.10524
31.5497 0 -38.5486
-17.158 0 1.63864
11.204 0 1.17777
48.0603 0 32.0204
-2.07237 0 18.185
-2.03697 0 11.0489
-12.1252 0 1.27837
-105.325 0 -38.0943
-25.6727 0 1.67232
18.7763 0 -27.7909
-3.64318 0 1.18937
25.1193 0 37.4493
4.42591 0 4.02789
0.430131 0 2.36729
8.0033 0 24.3701
-25.0218 0 -21.2439
47.4004 0 -74.445
-7.13022 0 -4.03651
-23.3989 0 16.772
-11.1739 0 -19.75
-11.4903 0 -7.48609
-5.3635 0 16.9496
-35.8952 0 -58.4929
7.12795 0 -1.92571
13.9144 0 -18.7617
8.35635 0 -5.47064
21.1898 0 4.5008
-10.188 0 -14.1119
22.6058 0 -40.6925
-2.66282 0 12.1578
14.5003 0 10.1249
46.5731 0 8.81613
-1.44788 0 21.3165
-50.711 0 -19.0219
62.9005 0 27.8124
-3.47043 0 0.512781
49.0756 0 -9.22914
-5.31837 0 -4.28555
-2.94497 0 8.22829
-36.5057 0 109.617
18.0613 0 -5.2469
-21.8565 0 13.8638
40.8766 0 8.34814
-5.67299 0 1.50738
6.74555 0 -3.95102
14.5758 0 -7.38519
-11.2402 0 0.897529
12.9669 0 -4.59727
-17.6537 0 9.37757
-3.14339 0 4.57358
2.88074 0 -40.2326
-9.99312 0 13.6431
20.3615 0 3.35777
-12.8469 0 -14.7478
7.49313 0 4.47278
-7.67605 0 -34.0847
-0.121155 0 -11.8319
-6.78201 0 -15.733
-0.165224 0 -20.0652
-7.9169 0 28.084
84.0197 0 -36.5654
7.93128 0 -4.1441
23.498 0 -31.2209
23.6857 0 12.6866
-0.354232 0 -17.2621
-18.3823 0 -55.3278
0.925584 0 -18.138
115.459 0 35.3598
-18.8769 0 41.815
-16.764 0 25.128
9.79433 0 -6.27944
-84.7642 0 -86.4917
0.655371 0 5.015
-6.77434 0 -0.371131
12.5072 0 2.42944
-1.72666 0 0.97937
-17.6203 0 1.15144
38.5163 0 -9.94796
18.493 0 -3.68305
3.26161 0 -11.6813
1.40061 0 20.7484
-16.9938 0 7.15271
-4.40447 0 22.4429
23.1413 0 -49.8404
-11.1656 0 18.3547
-20.4297 0 8.66807
11.1623 0 -10.9516
-35.367 0 -15.6021
-29.9691 0 12.0977
-2.22895 0 -29.5145
-12.6113 0 -6.9223
-36.1969 0 14.8434
8.72392 0 4.36171
53.9972 0 -57.4316
-102.83 0 55.6292
-16.3208 0 -47.647
-22.3592 0 21.8882
-5.53684 0 18.1643
19.5811 0 5.57184
-26.976 0 55.715
-4.327 0 -11.5385
-2.54108 0 -11.8181
-3.25645 0 28.4244
11.0599 0 -19.0316
-18.6668 0 3.63935
-11.3481 0 -16.0834
-24.7401 0 21.3324
-1.12437 0 -1.72836
16.3443 0 -0.939557
-6.51106 0 2.06368
20.6893 0 -5.61218
-13.7088 0 11.2697
7.40429 0 -51.4611
6.87889 0 3.96762
9.40743 0 106.579
3.64584 0 8.81354
-8.09705 0 33.3587
-13.6864 0 2.65467
8.88576 0 -30.5019
-10.2153 0 68.2361
-94.7273 0 54.041
-3.07641 0 -3.21455
4.40645 0 24.3347
18.6825 0 -29.8035
-10.1903 0 2.21382
46.2513 0 75.716
22.747 0 -23.1875
1.63946 0 -4.6131
10.7274 0 -12.6302
30.067 0 6.91716
7.95934 0 -10.2945
-24.8243 0 -17.1834
52.5786 0 97.7935
-23.9015 0 -8.24479
-21.08 0 40.001
22.2182 0 3.71471
-16.7536 0 23.323
-21.6041 0 -7.97421
4.31273 0 -9.51348
-13.3924 0 4.42066
26.7747 0 9.66636
-1.68993 0 3.99182
5.78999 0 -6.57309
-132.951 0 9.68444
6.87857 0 -41.6552
20.7248 0 21.8754
-17.4053 0 13.9436
33.4702 0 -9.35932
-14.9797 0 34.1723
41.6342 0 9.17423
14.0991 0 -64.7944
-8.45699 0 -9.75068
-6.46808 0 -62.0678
159.694 0 -73.1624
-6.451 0 -7.19413
12.9711 0 -15.974
12.164 0 -64.5167
51.4333 0 -52.2754
35.4325 0 18.1024
-10.4375 0 -27.6596
-19.7738 0 -20.6274
7.81288 0 73.605
45.1806 0 -43.3682
2.99007 0 -0.316512
-11.2826 0 30.3313
19.1286 0 -20.7891
8.76891 0 -19.0588
34.2969 0 -0.292676
-2.4699 0 -10.6056
-12.2706 0 43.2243
-49.3874 0 -4.62327
18.0627 0 -33.6504
12.213 0 53.9379
11.3088 0 6.37056
2.59148 0 -8.59985
-47.1803 0 -91.9902
27.462 0 24.0362
5.17564 0 7.57096
79.766 0 13.4232
25.5122 0 36.7317
6.11965 0 -0.739937
-3.67012 0 -25.3122
-18.8553 0 -8.2272
-14.7539 0 15.4597
-35.9674 0 26.842
-27.2784 0 38.4383
-13.5098 0 10.3146
64.3437 0 -28.2787
-38.4222 0 -84.9033
-47.7292 0 -32.9375
19.462 0 -17.2148
18.4608 0 -15.4188
20.1644 0 -7.40304
22.6182 0 -7.63482
-11.923 0 -37.13
13.9944 0 -1.55603
11.4655 0 -24.9706
5.11988 0 -14.3507
3.39495 0 11.0589
6.33484 0 -124.897
-35.9078 0 -54.4721
-3.45857 0 -18.2984
7.49964 0 16.2259
18.8276 0 4.78931
31.2132 0 -62.5456
52.6045 0 36.3776
-27.4341 0 -2.92512
76.829 0 -34.453
-0.328124 0 -23.3612
-48.8318 0 30.2764
104.235 0 10.6488
-13.9582 0 24.4936
1.94842 0 15.1246
22.5346 0 -8.12731
-20.9993 0 60.5962
-7.60362 0 -13.2382
-27.5687 0 -0.285066
-29.2833 0 54.6859
13.4741 0 8.94292
4.83114 0 -26.0396
-18.7099 0 11.9815
16.0166 0 -5.62668
-2.50618 0 2.57828
-28.0942 0 -44.3994
21.3238 0 23.4271
13.1029 0 -26.2271
-5.04399 0 2.39673
-26.9574 0 20.9879
-1.24611 0 -13.5391
23.2559 0 -8.2499
-39.701 0 30.7966
24.671 0 -11.6268
16.5568 0 -13.7708
-17.1649 0 68.3193
0.19404 0 -60.6008
55.5401 0 -81.2568
-41.2804 0 31.1344
-6.60389 0 12.9322
62.9892 0 -84.1211
-1.59202 0 5.6612
9.9961 0 19.4802
-1.96727 0 29.8388
-7.82228 0 0.187183
10.6808 0 6.48389
-24.2454 0 -5.15336
-22.1395 0 -9.69203
-38.2194 0 -11.368
3.37152 0 15.8781
-71.5019 0 -62.6938
-9.12536 0 -0.464755
79.7476 0 -10.0119
48.8719 0 30.8236
-104.643 0 42.5622
7.28054 0 4.83863
-5.57001 0 5.98095
-4.6036 0 9.20396
-13.7079 0 -13.4864
14.9039 0 -7.89069
13.1589 0 3.26379
3.28727 0 11.0989
-7.28309 0 -12.399
-10.0451 0 57.8721
21.1415 0 -0.53093
4.20863 0 -16.3618
-48.0022 0 17.3399
-2.86297 0 -17.3316
-10.6929 0 4.9543
77.781 0 2.88557
-16.8443 0 72.1095
23.538 0 24.7056
4.17626 0 -10.8242
8.84953 0 -1.65879
-23.9802 0 -14.3503
16.9697 0 -0.923518
-0.55355 0 -30.4321
4.61595 0 -0.0186462
-5.80375 0 12.4428
-35.3124 0 -10.6414
39.6058 0 -29.5278
5.10003 0 -23.2948
4.87976 0 -42.7966
8.47962 0 29.7744
21.264 0 17.2466
-21.2335 0 2.50315
17.1966 0 -15.3802
11.9551 0 3.16277
-7.21083 0 16.8438
-1.2091 0 6.0603
-3.76982 0 14.3999
-3.00528 0 8.11893
-1.32876 0 5.34192
-10.5282 0 -19.7951
-17.8148 0 -23.7649
1.92203 0 -2.35984
0.239458 0 -0.229744
2.96488 0 15.5253
-71.9931 0 81.7084
-78.8782 0 43.8461
-12.7753 0 100.479
-4.27634 0 -15.3734
1.56881 0 4.28348
-26.2838 0 -5.90103
3.11333 0 -12.4395
-28.2006 0 -65.6361
7.34276 0 26.0433
6.39991 0 -11.918
85.6852 0 34.0987
6.91919 0 -11.4017
8.81339 0 -15.7795
-15.2583 0 -6.74668
-6.53186 0 8.02181
6.23034 0 68.1734
20.7827 0 36.776
11.3818 0 -18.1608
-68.2147 0 30.4276
-2.67294 0 -3.89566
67.07 0 -27.7232
-58.3109 0 41.8651
-79.4956 0 -26.4902
-40.1598 0 19.3527
9.21632 0 120.118
-4.46984 0 0.552932
-12.38 0 6.33268
-32.1772 0 13.8183
-38.0722 0 5.82041
-4.92594 0 9.69905
-89.7652 0 14.3503
-59.0107 0 -0.551983
-4.34702 0 -52.1546
-166.644 0 137.292
13.2242 0 6.93934
-5.89935 0 9.78578
16.5582 0 3.04467
-20.4441 0 1.81841
50.3276 0 -25.3702
26.6974 0 -47.5694
-20.3589 0 6.12533
-5.88056 0 -3.93957
-58.0197 0 52.7614
-34.0474 0 -44.3199
-3.00438 0 -2.66119
-5.67812 0 46.5445
9.00513 0 10.4681
0.629905 0 0.540705
-8.56198 0 32.0849
-9.93762 0 9.42947
0.103519 0 -8.30367
-3.82886 0 -28.1211
-16.9347 0 -51.7415
8.55421 0 30.4906
16.8595 0 8.65768
22.1829 0 -8.89856
11.5222 0 8.93512
4.89201 0 -45.9492
20.3811 0 33.435
-25.958 0 9.95768
33.4577 0 -24.1005
13.1157 0 3.68759
-26.038 0 -17.2992
62.0175 0 -42.2684
-29.4138 0 -59.6112
-18.1145 0 -27.6462
33.725 0 -60.3597
-12.4549 0 20.9645
40.6934 0 25.1721
-13.158 0 -3.39161
14.2735 0 -17.7932
8.27604 0 7.40631
-6.89765 0 14.1231
54.7679 0 72.0497
17.591 0 -12.4084
0.250932 0 29.8626
-62.404 0 -75.1032
63.1402 0 20.6563
6.60152 0 5.67061
3.57838 0 7.33984
1.20031 0 5.86766
-1.62108 0 26.5443
4.17086 0 -0.328609
34.5951 0 -1.68347
15.4633 0 -9.26012
20.5881 0 -2.32173
-12.4772 0 0.239662
24.2633 0 27.1825
13.5916 0 -21.0538
40.9284 0 3.73668
11.8825 0 -0.688363
3.68905 0 -17.7803
-8.0898 0 -0.103044
-2.40635 0 11.4389
3.56409 0 -0.805356
-16.6024 0 -1.97027
-25.1019 0 -44.846
38.4105 0 -6.64529
16.694 0 16.4473
8.91857 0 -19.7696
-5.72763 0 48.094
11.0253 0 -6.53504
6.80748 0 17.2766
32.6407 0 26.2197
-6.85536 0 1.3146
-19.2442 0 -63.3801
-6.93556 0 -1.11202
-12.5187 0 -20.3603
4.15549 0 -8.99079
1.65441 0 -6.24919
-30.754 0 54.7638
-81.968 0 -48.2236
70.1176 0 11.8457
-0.983412 0 16.9058
-9.74264 0 -7.98361
-0.832467 0 0.881458
-3.55073 0 -14.9672
-1.1854 0 42.2429
-18.5398 0 24.7456
27.3396 0 -28.9768
67.3496 0 -116.772
2.80257 0 -40.0117
-36.8829 0 18.1125
16.2736 0 10.779
8.99672 0 42.6861
-21.822 0 6.37613
14.3903 0 16.5377
15.9413 0 12.294
12.0536 0 -9.60695
-4.20402 0 -14.1638
8.57113 0 5.39238
6.96176 0 -7.78113
6.44337 0 -54.48
15.1503 0 -27.4644
-4.72659 0 -38.703
33.9622 0 74.8387
13.2052 0 -0.611714
-57.1545 0 -25.2663
-13.5212 0 48.055
16.6065 0 -8.561
0.852309 0 0.111526
0.476648 0 -11.294
-15.2831 0 6.5116
87.0316 0 -34.3867
-47.1224 0 -14.3086
61.9613 0 -18.2362
-6.68035 0 2.73214
-0.572708 0 -15.0795
-9.46364 0 19.3042
-37.8517 0 4.66766
1.31199 0 24.3033
17.4677 0 -0.736939
12.6009 0 -14.9609
-4.30499 0 10.7314
38.5759 0 18.0506
8.06764 0 0.87022
-3.32896 0 -8.20397
-53.9229 0 29.7579
161.443 0 125.443
-0.162702 0 4.34854
15.1724 0 -5.38424
5.64936 0 -18.1207
-9.27593 0 8.95434
30.3861 0 -17.8337
-43.2147 0 -73.4931
19.1289 0 -2.18115
-9.2569 0 6.6389
8.37124 0 22.5437
-2.07912 0 -5.20983
4.13099 0 13.0552
-15.0812 0 1.77379
-6.03801 0 4.86152
28.9748 0 -35.7564
6.36794 0 9.55787
-34.4424 0 -8.23538
13.3858 0 43.0006
-64.3813 0 -47.7325
5.0987 0 0.987979
12.0603 0 -6.45499
0.104234 0 37.9876
-67.3842 0 127.953
-3.21702 0 7.94385
60.98 0 -15.1866
-11.1368 0 18.7375
19.1928 0 84.4831
-5.47764 0 -22.3682
-29.8656 0 44.9397
-6.67551 0 -0.361059
-29.9727 0 2.05995
26.242 0 -18.9427
-49.5794 0 50.4099
6.14802 0 33.3858
6.40422 0 -19.651
24.4911 0 -42.6532
-7.84806 0 12.8788
-14.5852 0 -8.43945
-9.00143 0 -51.8141
-4.10302 0 19.3548
24.471 0 5.33754
17.5815 0 6.57377
-25.9784 0 11.1232
13.7884 0 3.53867
2.479 0 22.3676
29.3212 0 -4.38838
3.23509 0 -2.26806
-12.2623 0 6.303
-20.794 0 -24.728
-21.9583 0 -23.1141
-14.4823 0 -10.0034
24.9966 0 3.21972
6.34435 0 -6.19993
-3.91544 0 15.3771
-14.9799 0 11.6126
5.38756 0 0.293299
-20.6254 0 -2.62477
8.06996 0 26.8851
3.87639 0 1.72954
19.0015 0 -13.5279
-18.2919 0 -5.53677
-46.0106 0 109.316
3.11559 0 -19.9342
5.08654 0 1.01151
-5.75422 0 18.7059
17.8398 0 67.0427
26.2774 0 46.2053
8.06104 0 -2.6206
-16.2519 0 -9.60547
18.0584 0 -19.4019
-2.13943 0 -9.87147
-4.63538 0 10.6686
16.0979 0 -2.62815
-36.7468 0 33.3374
9.82331 0 -11.9026
62.7548 0 -78.114
-21.8635 0 4.2633
-14.7626 0 3.9141
3.48964 0 3.71772
45.5547 0 22.4368
26.5804 0 2.30957
33.6409 0 -6.25965
23.9281 0 -30.2601
-56.8232 0 -1.33045
-28.1711 0 18.1903
1.42237 0 2.70273
-143.967 0 -17.099
147.794 0 -15.1627
15.5306 0 -18.0658
22.2981 0 -6.49957
-21.1695 0 -26.8239
-11.7375 0 -1.18297
-38.826 0 -25.9818
4.58993 0 13.9015
-44.8221 0 -6.00949
-0.868054 0 27.0906
-25.4639 0 -10.0528
-10.0524 0 -15.7201
-6.22505 0 -14.7253
-14.7481 0 -1.73787
-5.58708 0 -38.1814
37.9632 0 -103.481
1.8308 0 -2.54927
-48.4585 0 -21.5786
-21.7894 0 -10.2962
1.00141 0 10.6217
-20.4698 0 8.15519
28.6447 0 -12.3017
-56.3206 0 -3.0505
77.1146 0 27.7785
18.9896 0 27.9491
13.2269 0 2.03428
-11.072 0 2.32946
-11.3368 0 -11.6444
-39.1511 0 -4.59875
-5.51147 0 -61.9648
-14.1047 0 -6.63895
10.9364 0 34.23
-46.6677 0 41.257
-120.936 0 -204.146
10.866 0 -4.43
2.81525 0 -14.4945
7.44014 0 6.46305
-24.7514 0 -6.38829
10.7288 0 15.0916
6.04466 0 9.48234
20.5409 0 -0.086007
7.42654 0 -7.58672
9.92728 0 16.8255
-21.1416 0 0.675553