# vtk DataFile Version 3.0
SiWiRVisFile
ASCII
DATASET UNSTRUCTURED_GRID
POINTS 1600 DOUBLE
76.5421 100 72.6094
76.7141 100 73.724
77.7345 100 74.1853
79.6198 100 73.975
80.721 100 74.3044
81.8821 100 74.7844
83.76 100 74.6385
84.799 100 75.0979
85.9197 100 75.5422
84.6868 100 73.8668
91.5641 100 72.9559
91.1034 100 71.5233
90.7093 100 73.6199
89.9006 100 70.9828
88.3392 100 70.6284
91.0532 100 63.0529
92.0693 100 63.3735
93.9633 100 62.0202
90.9728 100 57.7912
96.2838 100 60.5826
103.727 100 44.0654
105.934 100 45.3326
106.114 100 44.2302
107.033 100 44.9368
105.004 100 43.6318
109.936 100 44.6632
110.373 100 38.8185
111.428 100 38.1238
110.719 100 39.8927
111.778 100 39.6517
112.932 100 39.6101
113.985 100 39.8968
112.88 100 38.1254
113.852 100 38.7733
114.704 100 44.6616
119.486 100 43.6411
117.45 100 44.9294
118.383 100 44.2238
118.551 100 45.3313
120.759 100 44.0586
128.888 100 60.096
133.52 100 57.7912
130.232 100 61.6805
132.391 100 63.6749
133.345 100 63.2265
135.874 100 70.7554
134.712 100 71.0085
134.299 100 73.1269
133.264 100 71.4803
133.091 100 72.9779
139.808 100 73.8963
138.589 100 75.5389
139.722 100 75.0914
140.761 100 74.6386
142.611 100 74.7684
143.776 100 74.2968
144.877 100 73.9702
146.759 100 74.1837
147.781 100 73.7236
147.95 100 72.6098
75.7598 100 74.4303
76.7848 100 74.903
78.6849 100 74.6126
79.9239 100 75.0447
80.8835 100 75.401
82.8109 100 75.3207
83.9348 100 75.769
84.8229 100 76.2952
85.8181 100 76.7026
87.0307 100 76.772
88.0499 100 76.5228
92.1569 100 70.8665
90.108 100 72.2007
91.0201 100 68.2469
92.4684 100 65.3967
90.7944 100 70.4298
93.1137 100 63.0753
95.3495 100 61.2326
96.4759 100 61.6866
98.1654 100 61.4797
104.927 100 44.707
98.1188 100 50.8192
106.175 100 52.8278
110.793 100 42.8706
107.579 100 43.6226
109.048 100 45.4595
109.888 100 43.5145
109.648 100 42.3874
108.012 100 38.0513
111.55 100 40.7132
113.005 100 40.7397
116.553 100 38.0783
114.727 100 42.2692
114.468 100 43.6078
115.412 100 45.4821
116.899 100 43.6269
113.671 100 42.8831
118.467 100 52.1952
126.374 100 50.8192
119.561 100 44.7153
126.179 100 61.2692
128.297 100 61.6934
129.342 100 61.1753
131.508 100 63.0651
133.836 100 70.4784
132.046 100 65.4145
133.165 100 68.2902
134.178 100 71.9329
132.097 100 71.0663
136.363 100 76.8341
137.449 100 76.6839
138.646 100 76.8074
139.628 100 76.3157
140.566 100 75.7851
141.689 100 75.3128
143.575 100 75.3979
144.551 100 75.0416
145.812 100 74.6164
147.709 100 74.8993
148.735 100 74.4258
75.9348 100 75.6437
77.0236 100 75.999
77.9071 100 75.3521
79.0338 100 75.6189
79.9837 100 76.2443
81.8374 100 75.9329
82.8478 100 76.4782
83.919 100 76.989
84.9468 100 77.3643
86.3122 100 77.7518
87.4197 100 77.8683
88.5808 100 78.2348
90.0647 100 76.4792
91.6647 100 69.8868
92.4363 100 67.7193
93.3675 100 66.3893
93.2695 100 64.1821
94.233 100 63.4716
95.2239 100 62.4094
97.299 100 60.8249
98.3414 100 60.3272
104.3 100 54.0957
105.352 100 53.4931
106.533 100 54.0563
103.242 100 50.254
107.243 100 52.7376
106.61 100 51.7475
105.489 100 51.9775
110.267 100 41.083
111.236 100 41.8882
113.425 100 41.7953
114.226 100 41.0299
119.59 100 50.8996
117.031 100 51.515
117.405 100 52.8308
120.697 100 51.1664
117.475 100 53.9713
118.675 100 53.7029
120.941 100 54.3705
125.715 100 60.2675
127.386 100 61.1128
129.081 100 62.4025
129.998 100 62.9897
131.008 100 64.2225
131.487 100 66.3883
131.909 100 67.4082
133.05 100 69.4504
133.746 100 76.8358
135.858 100 77.8817
136.941 100 77.8542
138.009 100 77.6294
139.559 100 77.4425
140.58 100 76.9829
141.652 100 76.4627
142.676 100 76.0134
144.476 100 76.231
145.441 100 75.6163
146.59 100 75.3491
147.47 100 76.0014
148.559 100 75.6421
76.2065 100 76.736
77.2747 100 77.2026
78.1774 100 76.4172
79.1055 100 76.93
80.9027 100 76.7087
81.8831 100 77.0605
83.0458 100 77.6718
84.1225 100 78.2036
85.3104 100 78.4495
86.5689 100 78.8134
88.0136 100 79.1837
89.77 100 78.245
89.069 100 76.9034
92.6943 100 69.7887
91.9959 100 68.7736
93.5783 100 67.4863
94.8677 100 65.8537
93.571 100 65.3604
94.4897 100 64.7521
95.552 100 63.5734
96.3472 100 62.8842
99.1007 100 61.1805
104.627 100 52.6352
105.388 100 57.4875
105.319 100 54.7075
106.238 100 55.1995
108.662 100 54.7693
110.176 100 54.7992
107.962 100 51.8138
111.565 100 43.6396
112.877 100 43.6298
116.387 100 52.5021
114.992 100 53.7529
115.57 100 54.6192
118.459 100 54.8799
119.538 100 54.7502
119.597 100 56.1804
120.006 100 53.7607
125.07 100 61.2185
127.779 100 63.162
129.001 100 63.5383
129.914 100 64.3149
130.827 100 65.4133
130.397 100 66.3353
130.817 100 67.3051
132.196 100 68.7849
131.976 100 69.9358
135.266 100 76.8602
135.002 100 78.7207
136.549 100 78.7924
137.707 100 78.694
138.999 100 78.4464
140.262 100 78.3542
141.43 100 77.7488
142.582 100 77.1041
143.566 100 76.756
145.382 100 76.9113
146.307 100 76.4117
147.211 100 77.1921
148.289 100 76.7384
76.2813 100 77.8151
77.3583 100 78.3385
78.2894 100 77.643
80.0614 100 77.5395
81.1457 100 77.8301
82.1342 100 78.2602
83.383 100 79.035
84.5509 100 79.2419
85.799 100 79.5794
86.9923 100 79.792
87.4375 100 80.74
90.3013 100 79.2843
90.7719 100 77.4318
94.4296 100 68.1551
93.2656 100 68.4515
95.525 100 66.6944
96.2984 100 65.8773
95.6052 100 64.6849
96.6192 100 64.1745
97.5827 100 63.4175
97.4639 100 62.299
103.216 100 60.829
105.438 100 56.1822
107.151 100 55.8948
107.592 100 54.6525
108.177 100 55.7719
109.411 100 55.7996
110.252 100 56.6102
108.299 100 53.7179
111.343 100 45.8682
113.126 100 45.8128
116.24 100 53.6163
114.125 100 56.2778
114.97 100 55.6995
116.088 100 55.8483
116.83 100 54.8588
117.185 100 56.0606
117.887 100 56.8895
121.217 100 60.9197
127.007 100 62.2671
126.672 100 63.3882
127.337 100 64.3053
128.851 100 64.8208
129.773 100 65.3887
128.591 100 66.8743
131.127 100 69.231
130.078 100 68.44
133.917 100 78.1037
133.999 100 79.168
137.075 100 80.7192
137.563 100 79.7776
138.602 100 79.6358
139.686 100 79.3901
141.259 100 78.9742
142.347 100 78.2659
143.358 100 77.8833
144.441 100 77.52
146.2 100 77.6287
147.125 100 78.3312
148.202 100 77.8031
76.0759 100 78.8891
77.0859 100 79.3702
78.2951 100 78.8006
79.2086 100 78.2469
80.3117 100 78.5761
81.3575 100 79.051
82.2806 100 79.4718
83.1314 100 80.0999
84.1728 100 80.3878
85.1939 100 80.5214
86.2266 100 80.7009
89.151 100 79.4068
90.8944 100 80.2344
89.9217 100 75.3899
91.4263 100 74.7991
94.5433 100 66.9811
96.5195 100 67.1353
97.6194 100 66.3973
97.3897 100 65.3918
98.6172 100 64.192
98.5003 100 62.4542
101.073 100 62.1874
103.512 100 59.1232
104.776 100 59.2805
106.522 100 56.8833
107.664 100 56.8693
108.325 100 57.905
108.997 100 56.7379
111.386 100 56.6083
111.222 100 54.4897
113.918 100 54.2688
112.779 100 56.7005
114.99 100 56.7881
115.779 100 57.611
116.701 100 56.966
118.9 100 57.2683
119.552 100 58.2687
120.57 100 59.6791
123.539 100 62.0816
125.916 100 62.4839
126.057 100 64.2959
128.119 100 65.526
127.227 100 66.4082
127.763 100 67.779
129.664 100 67.1251
132.875 100 74.9018
134.555 100 74.7374
133.489 100 80.0999
135.716 100 79.5652
138.193 100 80.7041
139.235 100 80.5029
140.292 100 80.3949
141.314 100 80.0494
142.314 100 79.5749
143.181 100 79.0811
144.254 100 78.5944
145.29 100 78.2278
146.19 100 78.7954
147.394 100 79.3568
148.421 100 78.8596
75.1118 100 79.4035
76.0846 100 79.9549
78.4659 100 79.9411
79.359 100 79.314
80.3851 100 79.749
80.5026 100 81.6409
82.1594 100 80.7486
83.471 100 81.1899
84.5666 100 81.4785
85.633 100 81.7044
86.8677 100 81.6637
89.7459 100 80.3053
91.6344 100 81.2199
91.0431 100 75.8908
95.249 100 69.0229
95.5337 100 67.8174
97.441 100 68.6964
98.5754 100 66.686
98.4888 100 65.5833
99.3527 100 63.328
99.561 100 62.2321
102.152 100 61.5871
104.313 100 60.4938
107.181 100 57.8412
109.148 100 58.5281
109.837 100 57.5836
109.387 100 60.6992
110.87 100 57.6572
108.873 100 61.7448
109.612 100 62.6575
114.765 100 61.8311
115.684 100 61.0659
114.065 100 57.5783
114.505 100 60.6512
114.921 100 58.2565
116.001 100 58.7951
117.501 100 57.8961
120.108 100 60.8803
122.349 100 61.6228
124.74 100 62.4073
125.117 100 63.4029
126.533 100 65.3652
126.195 100 66.5047
127.077 100 68.5764
128.805 100 67.9955
129.232 100 69.1234
133.64 100 75.6959
132.175 100 81.6532
134.722 100 80.065
137.706 100 81.6763
138.854 100 81.675
140.018 100 81.4436
141.033 100 81.1687
142.158 100 80.7966
144.053 100 81.3251
144.133 100 79.7256
145.143 100 79.2985
146.026 100 79.9511
148.393 100 79.9585
149.361 100 79.417
75.225 100 80.5498
76.1592 100 81.1435
77.3297 100 80.7197
78.4838 100 81.2415
79.3923 100 80.6167
79.4878 100 81.6928
81.5383 100 81.6073
82.6405 100 81.732
83.6437 100 82.296
85.3596 100 82.7789
86.4135 100 82.847
87.44 100 82.5762
88.701 100 80.4824
88.0665 100 81.5286
88.5424 100 82.6632
92.2395 100 80.4119
96.5655 100 69.7349
97.6008 100 67.5649
100.586 100 66.1497
99.5394 100 65.8163
99.6693 100 64.5544
100.465 100 63.7511
103.734 100 61.8177
106.4 100 58.9385
107.453 100 58.9387
109.181 100 59.6616
108.056 100 59.927
106.378 100 62.3388
107.793 100 62.8
109.69 100 64.2959
115.269 100 64.0566
117.652 100 62.3859
118.722 100 62.7825
115.856 100 59.967
114.745 100 59.3647
117.351 100 59.0766
118.383 100 58.6305
120.72 100 61.8692
123.917 100 63.7054
124.741 100 64.4268
125.11 100 65.4137
125.134 100 66.7659
126.584 100 67.475
128.068 100 69.1673
132.281 100 80.5707
135.718 100 82.5479
136.602 100 81.7721
135.918 100 80.7673
136.722 100 82.9111
137.875 100 82.8984
139.086 100 82.9353
140.863 100 82.2641
141.929 100 81.8438
142.981 100 81.5296
145.15 100 81.7318
145.128 100 80.6003
146.158 100 81.148
147.201 100 80.7379
148.337 100 81.0739
149.284 100 80.5494
75.1933 100 81.6868
76.4933 100 82.1295
77.6197 100 81.8659
78.6869 100 82.4368
79.2678 100 83.9158
78.2999 100 84.8465
79.9939 100 82.8028
81.0752 100 82.6065
82.5013 100 82.8464
81.5946 100 83.557
83.836 100 83.4573
85.8326 100 83.717
86.9458 100 83.8448
88.4331 100 83.7171
89.6737 100 83.0886
91.3397 100 79.2378
97.5171 100 70.8229
97.956 100 69.7435
99.7658 100 67.1316
100.836 100 67.4791
101.449 100 64.0707
[...]
POINT_DATA 1600
SCALARS mass double
LOOKUP_TABLE default
1
1
1
1
1
1
1
1
1
1
1
1
1
1
1
1
1
1
1
1
1
1
1
1
1
1
1
1
1
1
1
1
1
1
1
1
1
1
1
1
1
1
1
1
1
1
1
1
1
1
1
1
1
1
1
1
1
1
1
1
1
1
1
1
1
1
1
1
1
1
1
1
1
1
1
1
1
1
1
1
1
1
1
1
1
1
1
1
1
1
1
1
1
1
1
1
1
1
1
1
1
1
1
1
1
1
1
1
1
1
1
1
1
1
1
1
1
1
1
1
1
1
1
1
1
1
1
1
1
1
1
1
1
1
1
1
1
1
1
1
1
1
1
1
1
1
1
1
1
1
1
1
1
1
1
1
1
1
1
1
1
1
1
1
1
1
1
1
1
1
1
1
1
1
1
1
1
1
1
1
1
1
1
1
1
1
1
1
1
1
1
1
1
1
1
1
1
1
1
1
1
1
1
1
1
1
1
1
1
1
1
1
1
1
1
1
1
1
1
1
1
1
1
1
1
1
1
1
1
1
1
1
1
1
1
1
1
1
1
1
1
1
1
1
1
1
1
1
1
1
1
1
1
1
1
1
1
1
1
1
1
1
1
1
1
1
1
1
1
1
1
1
1
1
1
1
1
1
1
1
1
1
1
1
1
1
1
1
1
1
1
1
1
1
1
1
1
1
1
1
1
1
1
1
1
1
1
1
1
1
1
1
1
1
1
1
1
1
1
1
1
1
1
1
1
1
1
1
1
1
1
1
1
1
1
1
1
1
1
1
1
1
1
1
1
1
1
1
1
1
1
1
1
1
1
1
1
1
1
1
1
1
1
1
1
1
1
1
1
1
1
1
1
1
1
1
1
1
1
1
1
1
1
1
1
1
1
1
1
1
1
1
1
1
1
1
1
1
1
1
1
1
1
1
1
1
1
1
1
1
1
1
1
1
1
1
1
1
1
1
1
1
1
1
1
1
1
1
1
1
1
1
1
1
1
1
1
1
1
1
1
1
1
1
1
1
1
1
1
1
1
1
1
1
1
1
1
1
1
1
1
1
1
1
1
1
1
1
1
1
1
1
1
1
1
1
1
1
1
1
1
1
1
1
1
1
1
1
1
1
1
1
1
1
1
1
1
1
1
1
1
1
1
1
1
1
1
1
1
1
1
1
1
1
1
1
1
1
1
1
1
1
1
1
1
1
1
1
1
1
1
1
1
1
1
1
1
1
1
1
1
1
1
1
1
1
1
1
1
1
1
1
1
1
1
1
1
1
1
1
1
1
1
1
1
1
1
1
1
1
1
1
1
1
1
1
1
1
1
1
1
1
1
1
1
1
1
1
1
1
1
1
1
1
1
1
1
1
1
1
1
1
1
1
1
1
1
1
1
1
1
1
1
1
1
1
1
1
1
1
1
1
1
1
1
1
1
1
1
1
1
1
1
1
1
1
1
1
1
1
1
1
1
1
1
1
1
1
1
1
1
1
1
1
1
1
1
1
1
1
1
1
1
1
1
1
1
1
1
1
1
1
1
1
1
1
1
1
1
1
1
1
1
1
1
1
1
1
1
1
1
1
1
1
1
1
1
1
1
1
1
1
1
1
1
1
1
1
1
1
1
1
1
1
1
1
1
1
1
1
1
1
1
1
1
1
1
1
1
1
1
1
1
1
1
1
1
1
1
1
1
1
1
1
1
1
1
1
1
1
1
1
1
1
1
1
1
1
1
1
1
1
1
1
1
1
1
1
1
1
1
1
1
1
1
1
1
1
1
1
1
1
1
1
1
1
1
1
1
1
1
1
1
1
1
1
1
1
1
1
1
1
1
1
1
1
1
1
1
1
1
1
1
1
1
1
1
1
1
1
1
1
1
1
1
1
1
1
1
1
1
1
1
1
1
1
1
1
1
1
1
1
1
1
1
1
1
1
1
1
1
1
1
1
1
1
1
1
1
1
1
1
1
1
1
1
1
1
1
1
1
1
1
1
1
1
1
1
1
1
1
1
1
1
1
1
1
1
1
1
1
1
1
1
1
1
1
1
1
1
1
1
1
1
1
1
1
1
1
1
1
1
1
1
1
1
1
1
1
1
1
1
1
1
1
1
1
1
1
1
1
1
1
1
1
1
1
1
1
1
1
1
1
1
1
1
1
1
1
1
1
1
1
1
1
1
1
1
1
1
1
1
1
1
1
1
1
1
1
1
1
1
1
1
1
1
1
1
1
1
1
1
1
1
1
1
1
1
1
1
1
1
1
1
1
1
1
1
1
1
1
1
1
1
1
1
1
1
1
1
1
1
1
1
1
1
1
1
1
1
1
1
1
1
1
1
1
1
1
1
1
1
1
1
1
1
1
1
1
1
1
1
1
1
1
1
1
1
1
1
1
1
1
1
1
1
1
1
1
1
1
1
1
1
1
1
1
1
1
1
1
1
1
1
1
1
1
1
1
1
1
1
1
1
1
1
1
1
1
1
1
1
1
1
1
1
1
1
1
1
1
1
1
1
1
1
1
1
1
1
1
1
1
1
1
1
1
1
1
1
1
1
1
1
1
1
1
1
1
1
1
1
1
1
1
1
1
1
1
1
1
1
1
1
1
1
1
1
1
1
1
1
1
1
1
1
1
1
1
1
1
1
1
1
1
1
1
1
1
1
1
1
1
1
1
1
1
1
1
1
1
1
1
1
1
1
1
1
1
1
1
1
1
1
1
1
1
1
1
1
1
1
1
1
1
1
1
1
1
1
1
1
1
1
1
1
1
1
1
1
1
1
1
1
1
1
1
1
1
1
1
1
1
1
1
1
1
1
1
1
1
1
1
1
1
1
1
1
1
1
1
1
1
1
1
1
1
1
1
1
1
1
1
1
1
1
1
1
1
1
1
1
1
1
1
1
1
1
1
1
1
1
1
1
1
1
1
1
1
1
1
1
1
1
1
1
1
1
1
1
1
1
1
1
1
1
1
1
1
1
1
1
1
1
1
1
1
1
1
1
1
1
1
1
1
1
1
1
1
1
1
1
1
1
1
1
1
1
1
1
1
1
1
1
1
1
1
1
1
1
1
1
1
1
1
1
1
1
1
1
1
1
1
1
1
1
1
1
1
1
1
1
1
1
1
1
1
1
1
1
1
1
1
1
1
1
1
1
1
1
1
1
1
1
1
1
1
1
1
1
1
1
1
1
1
1
1
1
1
1
1
1
1
1
1
1
1
1
1
1
1
1
1
1
1
1
1
1
1
1
1
1
1
1
1
1
1
1
1
1
1
1
1
1
1
1
1
1
1
1
1
1
1
1
1
1
1
1
1
1
1
1
1
1
1
1
1
1
1
1
1
1
1
1
1
1
1
1
1
1
1
1
1
1
1
1
1
1
1
1
1
1
1
1
1
1
1
1
1
1
1
1
1
1
1
1
1
1
1
1
1
1
1
1
1
1
1
1
1
1
1
1
1
1
1
1
1
1
1
1
1
1
1
1
1
1
1
1
1
1
1
1
1
1
1
1
1
1
1
1
1
1
1
1
1
1
1
1
1
1
1
1
1
1
1
1
1
1
1
1
1
1
1
1
1
1
1
1
1
1
1
1
1
1
1
1
1
1
1
1
1
1
1
1
1
1
1
1
1
1
VECTORS force double
0.468162 0 3.43377
-7.84255 0 16.1573
-52.1625 0 -2.73222
1.58526 0 3.90807
14.0874 0 -8.63126
-38.4853 0 -3.22612
4.41946 0 6.41235
14.1618 0 -2.33393
-19.4508 0 12.9808
-7.69547 0 20.8406
8.60729 0 -16.2582
-7.24607 0 -4.26172
-10.8947 0 14.2369
-25.8606 0 36.4583
4.25158 0 1.0399
-26.0266 0 -8.40284
19.7237 0 17.2026
8.74555 0 15.8082
0 0 0
-49.1583 0 -7.97208
18.02 0 1.32679
-1.20343 0 -7.85082
-11.5106 0 0.0180795
-11.1634 0 -8.78985
3.23798 0 -9.46608
-5.66436 0 0.227348
13.4117 0 -2.49909
-1.98396 0 12.4941
-11.7791 0 18.2522
23.9766 0 -22.4032
-10.7734 0 -12.293
2.82121 0 15.8708
0.0359714 0 12.5994
-16.3535 0 6.60325
-8.09106 0 4.99964
-3.14741 0 -10.2427
12.5461 0 -9.57026
10.8842 0 1.99831
0.601178 0 -8.80029
-18.111 0 1.3633
1.55052 0 12.524
0 0 0
54.6103 0 53.3265
-22.3891 0 33.7365
33.1796 0 -16.4784
-11.5851 0 2.54597
82.2695 0 15.1618
-12.8568 0 -10.1479
-75.3378 0 -41.9087
16.1237 0 -7.12604
8.25002 0 19.7326
19.7825 0 17.3606
-16.3628 0 -1.37703
-7.10104 0 7.36781
37.2581 0 0.646309
-20.3606 0 -11.0365
-1.12381 0 6.90623
53.9525 0 -4.13835
7.20668 0 16.2992
-0.410519 0 3.1105
13.725 0 6.38913
17.4288 0 -10.3975
64.5021 0 -17.1524
-60.9623 0 -22.0071
59.558 0 40.3766
32.6209 0 23.2049
-82.2915 0 -15.435
35.5922 0 -9.92496
41.6969 0 2.55552
-59.4293 0 25.4234
26.9201 0 -7.46782
-8.77213 0 2.50711
12.6473 0 -13.5192
2.69262 0 -1.29953
4.8357 0 1.48146
-17.5022 0 22.0328
29.9556 0 -8.71455
11.1645 0 15.3297
-0.404181 0 8.56002
-155.224 0 -21.161
10.2835 0 16.0231
0 0 0
12.592 0 -6.32736
-25.5001 0 1.3395
-6.25771 0 9.00002
7.63571 0 -8.03049
-1.50872 0 1.98855
18.5224 0 4.33208
0.194787 0 0.0632973
-13.5085 0 21.7537
11.8317 0 -5.98872
0 0 0
-24.637 0 2.75687
8.62568 0 -13.7155
10.652 0 11.2571
6.32384 0 9.31058
5.24078 0 -26.4093
-12.0854 0 8.78527
0 0 0
-10.3284 0 16.4211
21.9284 0 26.7018
-10.3173 0 -11.2062
-79.5451 0 -28.6237
-29.0572 0 -2.23114
-75.0559 0 -36.3947
-16.2483 0 -3.60765
6.54568 0 0.318533
54.2411 0 67.3104
13.4445 0 -1.66609
2.18962 0 18.4841
14.3336 0 2.68363
12.0506 0 -49.4824
-10.5348 0 -5.57939
47.5623 0 3.10001
-26.7198 0 28.1851
-37.5213 0 27.6607
48.4101 0 -11.448
-68.4458 0 -18.0363
-17.1972 0 -8.47096
-13.8506 0 6.66371
6.83496 0 -10.0375
7.59633 0 14.4543
-15.4879 0 -9.31548
-27.4403 0 60.303
-51.5207 0 -41.2479
10.3084 0 9.03282
13.6339 0 0.196911
-10.0162 0 -13.6425
4.94059 0 44.0464
-19.2219 0 -21.9047
8.76509 0 6.36455
8.94305 0 -6.74031
25.6306 0 9.46907
-2.48038 0 -48.4474
0.286996 0 -1.10664
-2.75442 0 39.9292
11.9621 0 12.4464
-1.08457 0 5.45044
6.70601 0 4.37803
36.1068 0 14.7266
-5.31897 0 16.4227
21.6036 0 -6.07494
-24.9533 0 38.3025
-8.80451 0 -1.08016
0 0 0
24.7865 0 -5.69184
5.84414 0 17.9601
11.0446 0 -13.0665
21.0284 0 1.01063
0.12241 0 -34.8288
2.34155 0 1.14404
-7.12124 0 -3.90538
2.24798 0 2.86407
0.875118 0 19.3645
28.9666 0 5.61561
-4.11324 0 -0.850048
11.6119 0 -12.0423
-2.31891 0 13.4421
-5.51795 0 3.131
-4.63304 0 0.899177
-29.4789 0 3.23788
19.3744 0 6.54897
15.8576 0 11.9576
14.8015 0 -0.0371381
0.454465 0 -10.7127
14.7354 0 16.9179
10.6413 0 16.9342
2.5931 0 12.3311
-22.8183 0 -0.785795
40.4422 0 -92.8166
-3.35299 0 49.0157
-0.0931855 0 11.1443
5.75458 0 -9.81713
-19.3377 0 4.58613
-11.2982 0 -16.1713
33.2525 0 -28.6312
28.527 0 59.7058
15.8111 0 -5.95439
-6.89144 0 12.9515
-7.50806 0 -9.30484
2.92504 0 -9.77146
-11.5967 0 -15.6591
-37.0454 0 0.681993
41.0923 0 7.95475
13.1841 0 7.15656
78.8722 0 10.5342
9.38607 0 -8.80317
7.64388 0 -23.3688
17.7774 0 -7.66985
4.55512 0 -34.197
-10.48 0 12.5711
-4.64123 0 5.31288
-1.26014 0 22.5792
49.6634 0 -12.6018
21.1074 0 13.085
-3.23628 0 -87.5343
-21.4881 0 -28.2957
15.8871 0 -46.4616
-1.44955 0 -12.8228
-35.7434 0 19.092
41.7227 0 -33.7021
153.426 0 -40.9793
-8.03505 0 16.2835
13.3991 0 -13.5423
-43.0033 0 -39.1586
50.3823 0 25.8815
33.7331 0 14.4349
-24.9994 0 15.2265
-15.8305 0 8.00738
15.8767 0 7.59661
-15.2859 0 7.65353
-17.9719 0 -12.5004
-24.4518 0 -38.9213
42.6716 0 55.501
-22.8189 0 -12.6427
10.3974 0 5.71488
-9.44097 0 1.01053
-8.94845 0 -10.3029
-1.72438 0 12.5688
4.09372 0 0.582152
-1.96449 0 9.72161
-18.0583 0 -23.3293
86.3349 0 -83.7406
-50.1828 0 26.5938
-6.84591 0 35.9361
-36.8443 0 -0.768181
17.932 0 -4.80092
-10.0516 0 10.9653
4.33082 0 -13.5549
-28.7206 0 82.3981
7.93593 0 -2.0321
-4.8764 0 4.78369
-1.12795 0 -2.11434
-37.7988 0 -22.3059
-65.1226 0 34.1466
10.8672 0 0.797772
-47.8919 0 7.82753
44.0278 0 -3.70548
13.9799 0 -15.7984
-2.75397 0 -19.7969
22.4597 0 8.51679
-45.6115 0 -57.4443
-19.6779 0 8.41638
0.422324 0 -48.4617
-35.6437 0 17.4225
11.8757 0 14.938
-3.92745 0 -9.91189
-7.72702 0 25.4317
-11.078 0 8.42614
-16.1308 0 -13.3644
-36.8478 0 -56.1842
-68.8089 0 0.99521
-12.1835 0 -1.59225
17.1872 0 6.77589
-25.4604 0 94.7283
76.7479 0 -6.01747
6.67085 0 1.2658
3.9409 0 15.6135
-2.18965 0 -14.2807
-0.862009 0 1.88275
-73.2331 0 3.64411
-1.53927 0 1.13593
18.8834 0 1.22504
-71.572 0 -5.31414
-30.1666 0 7.60202
68.6874 0 4.59007
23.3883 0 -77.3285
3.22328 0 -28.0309
-13.6965 0 -0.267732
0.534742 0 -1.52153
-0.82019 0 -1.08875
3.6477 0 17.3974
-162.638 0 -0.831921
68.6541 0 -66.9906
0.206752 0 -2.95352
-21.4651 0 18.0069
22.9262 0 -84.4536
-9.10502 0 -11.677
18.3243 0 -21.7926
10.6481 0 -6.55762
0.294359 0 -21.9727
-7.11487 0 1.25646
55.1288 0 -85.555
-24.2867 0 28.2736
-21.4497 0 1.50347
-6.18249 0 -15.0842
13.3347 0 -23.4701
132.425 0 -17.6321
5.18302 0 5.47648
-23.0157 0 37.794
-35.0422 0 -17.1625
20.8536 0 -36.7464
7.4775 0 1.82308
8.58922 0 -34.5038
17.0261 0 37.0622
30.0783 0 7.014
-11.6546 0 -29.6489
19.3908 0 6.53486
45.0696 0 -64.3237
-25.0616 0 9.71592
14.9552 0 -25.4082
2.32109 0 35.5909
21.2296 0 41.377
27.2651 0 -33.237
-2.81098 0 42.4811
-101.112 0 -42.5878
61.1937 0 12.2832
4.74491 0 36.0387
-25.0497 0 -31.94
20.013 0 10.4035
56.0878 0 3.01381
-13.8232 0 -29.518
6.02191 0 20.8451
12.2461 0 -3.28598
-10.6841 0 -0.638311
-61.4661 0 18.3362
17.808 0 -2.18526
-111.417 0 31.191
-27.8043 0 -64.3225
-11.5022 0 -1.65748
52.6693 0 81.5168
3.0822 0 -1.55043
13.8392 0 7.48513
-6.45723 0 18.7184
-4.51735 0 -3.85827
27.3622 0 -8.59786
-58.558 0 -49.803
-32.8922 0 73.8201
-0.844739 0 8.03818
11.1648 0 -2.29599
13.8258 0 -1.60867
3.26524 0 -0.182469
96.939 0 81.8501
17.4889 0 -7.64641
-23.9777 0 61.0531
20.1974 0 14.2343
-1.16659 0 -85.5505
-13.0676 0 13.3
3.91158 0 1.7569
-13.8378 0 1.8469
-13.0237 0 12.3923
-72.9566 0 69.2294
61.3993 0 -5.23088
-6.35167 0 -46.1068
-3.53941 0 31.7573
-1.2197 0 -5.92833
-10.8654 0 4.95155
-10.918 0 33.054
12.1377 0 9.60615
-15.2096 0 -3.10666
20.6672 0 24.9536
-3.31899 0 -38.8045
10.8053 0 24.0007
-113.969 0 54.8555
117.479 0 -80.244
-20.5297 0 19.8513
-18.804 0 -34.6712
-18.4467 0 43.6728
4.86896 0 38.781
-17.8316 0 4.12633
-8.2126 0 11.2111
53.4894 0 12.4848
-17.7882 0 15.9499
10.4472 0 9.83444
2.48808 0 -7.39509
21.9077 0 4.06777
30.3028 0 -49.8118
91.9115 0 -63.0511
-20.7342 0 -3.24784
30.6077 0 -13.7161
-28.4515 0 -0.169371
53.4536 0 2.28383
-66.5854 0 67.8426
-13.6415 0 -4.95361
0.0817 0 -18.297
-8.55809 0 -0.804801
2.46897 0 8.40675
128.63 0 45.1873
-21.6624 0 -13.0889
0.486792 0 10.5872
15.3585 0 -10.3507
2.67513 0 -0.133696
-74.1227 0 11.9926
-11.7664 0 16.5228
51.7864 0 32.9
-89.414 0 25.5029
-1.15587 0 39.3679
55.6331 0 -13.8974
5.05369 0 4.23654
-7.94083 0 11.1551
6.96799 0 -18.0276
-19.7821 0 6.08816
0.089727 0 -27.696
20.8622 0 1.38608
2.35519 0 19.3743
-10.7307 0 -2.89009
-10.2214 0 21.4216
24.0655 0 -38.4376
-1.61419 0 -0.720619
-9.21529 0 -36.751
22.8586 0 17.8247
1.45414 0 3.93587
-65.3372 0 -50.0474
-6.96853 0 18.0654
43.2978 0 14.3253
-23.4267 0 -3.06438
13.0798 0 3.31238
-5.14973 0 9.95782
-9.64161 0 -9.08818
0.902382 0 21.9038
2.57148 0 -7.77034
-53.1404 0 26.1506
66.4063 0 -8.09859
-9.71383 0 -36.4559
28.7129 0 -1.7752
-5.50504 0 5.87359
3.43198 0 12.9518
24.0461 0 6.0511
-39.4605 0 -5.13105
10.6998 0 7.16141
-41.4455 0 20.4473
6.02284 0 -61.9945
0.914197 0 3.62382
0.919911 0 -19.6248
10.1145 0 -38.8317
-65.9551 0 29.1466
39.3394 0 21.9016
-102.859 0 87.8952
-3.55242 0 3.8663
-61.0369 0 -37.8744
32.9925 0 -44.1786
39.5053 0 10.0339
-50.5553 0 3.61412
55.8889 0 90.7696
13.7228 0 -37.6457
47.2559 0 -44.7341
14.6127 0 -5.21985
2.52092 0 -12.9646
-12.6298 0 54.3608
12.0488 0 3.05432
9.15061 0 8.69049
-67.8512 0 -16.2509
19.6157 0 -1.41587
-47.409 0 -35.246
46.0245 0 5.2623
-15.7067 0 -36.5952
-3.25563 0 -7.72292
-2.45858 0 6.69292
9.2979 0 12.7487
0.282911 0 1.05871
14.9131 0 0.708424
0.747454 0 13.1458
7.41638 0 11.5531
-12.1578 0 -18.0794
17.0695 0 12.1742
-12.8794 0 -16.4721
13.6515 0 -8.31891
14.77 0 -55.8723
-3.55962 0 -9.21003
3.81718 0 -20.6312
23.3105 0 41.7528
16.6262 0 -3.48484
26.7862 0 50.3737
1.9526 0 -16.9736
12.967 0 -31.1143
-26.8394 0 -14.6513
-11.5094 0 -2.30206
6.39827 0 -5.84786
36.3052 0 15.3656
15.7304 0 -21.7716
-6.37467 0 -13.5764
6.85291 0 3.07156
-14.4804 0 -6.94832
-0.838653 0 -0.0242728
-32.4824 0 -48.152
-12.6053 0 -2.11228
-22.9829 0 -4.74564
10.971 0 -3.83141
-24.3276 0 -5.54225
33.7839 0 8.05335
7.73792 0 4.27134
24.44 0 53.3666
-17.2196 0 -22.7597
-21.1431 0 9.07308
91.4847 0 20.1157
7.71162 0 -15.7376
-40.4508 0 -44.0593
-0.915795 0 1.58852
2.9614 0 -0.319216
37.5313 0 13.1355
-19.7824 0 -40.0388
-9.73908 0 86.5229
20.7297 0 -14.7512
-25.7516 0 10.4596
-18.9984 0 0.860994
75.8683 0 -15.733
5.46174 0 -5.06317
-10.0707 0 -15.8761
-6.43095 0 -17.8817
-50.2667 0 62.118
47.9644 0 27.9849
4.59217 0 -2.14488
-14.4477 0 -6.11256
69.7476 0 -11.3732
2.69673 0 16.1432
21.4196 0 18.6365
-2.94374 0 19.8068
-58.1913 0 -23.3386
-3.94654 0 23.5856
14.537 0 -66.337
-21.4354 0 -16.8404
-32.5259 0 17.2596
45.4655 0 -25.912
10.0456 0 -18.3052
16.7251 0 -4.95349
-16.7744 0 8.99363
-22.9318 0 86.8672
-12.5526 0 53.1849
-55.1057 0 66.4815
-6.23057 0 -17.0786
-30.7512 0 -25.0321
7.61689 0 -35.0299
-15.844 0 -12.2254
74.4442 0 -16.7211
24.5041 0 3.86284
23.9269 0 14.1639
25.723 0 -13.8421
-17.4224 0 -10.4666
10.7378 0 12.5147
9.82419 0 1.91762
-6.99964 0 -96.3831
1.33134 0 47.8326
-23.7876 0 -0.0489003
-4.06693 0 21.3235
-19.8548 0 62.9756
-71.5582 0 6.96431
28.4872 0 38.1434
9.76135 0 -10.1005
6.9897 0 15.2452
-13.8511 0 -0.904431
5.88753 0 -8.56372
12.2842 0 -8.26145
-9.80502 0 37.6646
-13.4535 0 22.9107
-85.1094 0 -27.4179
-18.3985 0 -47.4912
-18.047 0 63.7869
40.5659 0 -53.4772
14.6338 0 91.2202
-0.290362 0 9.87728
-2.52333 0 14.8431
-20.6056 0 8.28554
-29.3972 0 19.9199
-50.6593 0 -55.6085
-13.3456 0 6.23711
0.152188 0 -17.2927
-17.9742 0 5.98104
-7.45559 0 18.562
3.1184 0 3.94803
-0.130336 0 -16.6633
1.6493 0 9.26441
-90.3498 0 0.046578
-5.37854 0 -56.5283
33.9311 0 7.83674
79.483 0 -3.91939
-66.1914 0 36.6413
73.8045 0 -37.7538
15.3026 0 -5.95696
-2.73534 0 -12.8423
32.99 0 50.8941
-12.6812 0 4.28412
13.0726 0 -13.0906
43.4772 0 -53.7768
74.906 0 43.2227
-13.2665 0 12.8157
5.42828 0 -0.546152
13.8519 0 9.26457
20.1551 0 16.5884
-4.21848 0 -10.9317
39.8769 0 65.6274
-14.4509 0 14.9562
-6.51957 0 -6.68002
-99.2434 0 -15.5155
3.94968 0 13.0131
1.83499 0 5.70213
5.14817 0 6.02536
35.7924 0 31.234
19.9931 0 -124.906
34.5303 0 -34.7338
2.02808 0 -6.06633
-64.2929 0 47.9814
29.3177 0 -10.6682
1.6727 0 -0.64511
-50.8693 0 -20.0709
24.6902 0 15.3126
86.7884 0 -75.3275
-0.991498 0 -3.58281
3.69966 0 -14.4641
-6.65911 0 4.40542
-10.915 0 1.90914
-7.57865 0 4.08227
15.4767 0 6.69957
30.0605 0 -25.1713
0.40579 0 -1.85298
-5.02271 0 0.111449
25.2447 0 1.29482
28.6403 0 -48.802
2.57061 0 -12.7355
3.51245 0 -0.540392
-13.2915 0 0.161893
12.1893 0 -5.45687
-21.8395 0 -57.4287
9.50294 0 1.35428
-22.1918 0 32.791
-61.0169 0 4.37509
53.4741 0 4.30966
-22.4666 0 5.75385
84.288 0 3.98572
13.3134 0 -46.8583
-16.0278 0 5.79259
21.0682 0 4.28313
-15.7986 0 3.45655
-14.8378 0 10.4524
37.8648 0 -52.2297
-3.64032 0 -14.9959
28.7323 0 -33.1483
-5.30728 0 -39.4471
8.83597 0 8.01047
39.2469 0 -41.3634
-12.3932 0 -30.3813
8.76787 0 16.2366
10.913 0 -5.37862
-119.667 0 52.6345
36.7625 0 22.3695
-5.0583 0 -16.2514
3.07992 0 -0.116645
-2.24664 0 15.8498
-29.9656 0 -9.79679
94.5794 0 -2.90744
42.9937 0 4.78875
-92.0861 0 23.4871
-40.842 0 1.57132
62.6393 0 -69.3019
-12.8648 0 0.649719
-7.31331 0 -93.8847
11.3276 0 59.8779
8.4141 0 -6.04543
-62.0653 0 86.7291
-46.4476 0 15.399
-7.2716 0 32.3924
12.4852 0 7.11254
-10.7964 0 31.3528
-1.09578 0 -7.49902
-10.031 0 -6.74412
69.147 0 9.44473
-19.9227 0 -2.79625
-44.1243 0 1.10905
-14.9591 0 -49.57
24.5182 0 26.2504
-16.5096 0 9.94878
14.5644 0 0.994976
-53.2968 0 32.544
46.9137 0 9.78772
18.0666 0 -7.16395
4.28076 0 -5.04987
-21.6743 0 28.2041
-6.93863 0 -12.8768
-8.0454 0 10.2833
4.45902 0 35.3424
0.936479 0 -4.64477
28.6543 0 -34.0493
3.23269 0 -9.60091
38.646 0 83.3042
-8.30937 0 6.03894
-40.616 0 19.4095
-41.5456 0 -108.503
32.2378 0 -39.9734
-46.7277 0 6.4753
17.3039 0 -13.2216
-8.08355 0 -42.0679
-5.76331 0 4.1022
-45.6584 0 -21.9285
20.4925 0 3.98217
-10.4419 0 14.2844
0.749386 0 6.82547
-24.2986 0 14.0586
10.3378 0 -7.84786
-2.87033 0 -15.0309
-31.5647 0 27.67
4.08606 0 -15.3764
14.8453 0 7.74345
-32.3844 0 -9.31575
3.59051 0 -18.4821
-7.89546 0 -28.7271
-0.824328 0 -1.22741
-116.853 0 -4.4946
-6.54323 0 34.7513
-22.7789 0 -57.1204
12.3262 0 44.7942
-22.5801 0 -31.488
1.355 0 -11.5907
8.58401 0 18.376
5.20161 0 -2.70578
-44.0976 0 33.2799
8.98194 0 -2.90374
0.0464426 0 -0.0305271
-42.4884 0 -20.9677
30.1699 0 11.0525
-22.6106 0 -3.19387
44.2636 0 11.0554
9.08542 0 32.1276
9.25537 0 -12.4254
-7.30002 0 23.6685
-0.919424 0 5.13684
4.62358 0 -12.9782
-0.888183 0 -12.5681
-7.09507 0 5.49042
0.707188 0 5.74791
33.1626 0 32.7409
-13.9366 0 5.6137
-39.1006 0 16.2365
-2.67242 0 2.63168
-6.35735 0 3.90394
18.3817 0 1.015
-8.20681 0 9.98893
-0.608519 0 -11.0233
-0.875699 0 10.8285
-134.419 0 -22.9081
-77.4558 0 6.28659
-4.46847 0 18.6054
-35.5257 0 7.51838
21.6629 0 35.255
-5.15572 0 -13.685
18.5753 0 -10.0733
-1.46654 0 -9.87982
106.454 0 32.6889
-0.478271 0 1.89786
12.2715 0 -1.35074
12.5991 0 -13.2004
-4.57797 0 36.3063
1.30612 0 8.18874
16.7476 0 5.0358
-41.5371 0 43.9242
21.4245 0 11.635
-5.13502 0 -5.79161
-18.3163 0 41.2613
-17.1366 0 -84.0792
9.68734 0 14.2828
-35.409 0 25.6261
-31.4455 0 5.3981
-0.674992 0 -3.33206
13.3004 0 -8.27458
8.01292 0 -4.91203
13.9442 0 13.756
-2.17232 0 -13.9281
5.39741 0 -11.5837
-24.1542 0 24.3839
4.88658 0 5.77812
-10.1159 0 -17.1795
-0.446251 0 9.19831
-17.6291 0 25.3121
-74.3671 0 83.9635
-14.453 0 -18.7857
-19.3388 0 8.54306
28.3226 0 -76.0726
54.5024 0 -11.8981
61.3581 0 3.97169
3.25687 0 -1.75385
-155.05 0 27.264
5.18254 0 -4.09547
15.9431 0 34.6218
4.55533 0 -12.6935
47.6494 0 -10.5921
1.80303 0 3.33312
-20.0326 0 14.7944
9.34029 0 -16.8358
-6.18385 0 -2.39008
-0.672961 0 8.14037
3.40052 0 7.38647
15.8947 0 8.65928
5.42743 0 12.8662
-15.642 0 -71.568
49.3871 0 43.9611
3.14202 0 -2.67329
10.6731 0 -23.9742
0.644269 0 -30.5403
-16.0297 0 -6.68333
-28.7854 0 -12.6945
24.3058 0 -7.63152
87.0611 0 -6.19894
126.536 0 -24.4804
-31.0957 0 -3.16284
7.80491 0 8.63882
-30.3135 0 -7.53465
-8.27302 0 7.19728
-85.5993 0 21.8001
-97.87 0 54.0736
14.0074 0 -11.8397
1.09508 0 14.9147
-0.672196 0 5.37923
-17.9223 0 -23.2491
11.6186 0 10.0891
9.90588 0 31.8331
26.1805 0 -63.2719
22.7416 0 -27.7221
-11.4807 0 -33.1803
25.628 0 48.738
7.94533 0 -25.1683
36.8631 0 24.6399
13.6658 0 16.0688
1.92289 0 10.2365
3.72235 0 11.9827
-10.1675 0 -12.8147
15.2214 0 7.74848
-73.2096 0 -0.458936
148.87 0 -31.5874
0.660731 0 15.4644
-12.7882 0 -2.3064
9.17066 0 8.6394
-1.31167 0 -16.5043
-3.7531 0 -15.7224
16.6605 0 -5.00254
10.5057 0 -9.415
-11.8281 0 17.972
5.82575 0 12.1638
-15.1968 0 -11.6935
1.16436 0 -8.98598
4.9833 0 -9.23563
120.518 0 -37.9379
-16.6258 0 -21.3108
-13.1826 0 4.17558
55.6307 0 23.0313
-17.7685 0 3.64858
-6.81227 0 -1.01336
-62.9799 0 11.3847
69.4978 0 7.15915
10.1157 0 -8.76481
-21.5737 0 13.1958
3.62833 0 -15.388
-16.5101 0 2.29148
8.82825 0 4.38638
7.40662 0 39.9841
11.4587 0 -12.0131
0.0492124 0 5.23204
7.1362 0 -46.5404
-3.85139 0 29.3157
8.36962 0 -84.2326
34.7048 0 29.9404
-23.9259 0 18.4925
50.3386 0 21.2181
29.4434 0 -10.7156
15.0713 0 10.3094
-49.6866 0 -20.715
45.091 0 -4.65186
1.82369 0 -51.4109
-7.32182 0 19.5388
4.49603 0 -6.20899
-1.81728 0 8.36812
-27.4438 0 -22.1739
-0.501201 0 -18.5083
-4.35311 0 -2.17571
-1.14135 0 -8.56207
-26.5925 0 -81.1046
48.9296 0 -5.41245
0.00435471 0 -9.55713
-7.19354 0 47.8917
-5.20185 0 -2.59432
25.5955 0 23.733
-33.0775 0 -48.7759
-17.4514 0 8.06722
10.2282 0 5.96924
-12.1574 0 -15.552
-4.88225 0 14.7927
-8.06205 0 -10.547
-25.7888 0 21.7057
-56.2244 0 23.2637
36.491 0 36.4154
1.68316 0 10.3146
-16.8265 0 -5.6241
21.1001 0 -4.75525
-13.3766 0 0.479205
-0.929873 0 1.3211
-0.375976 0 -0.295623
-18.089 0 2.13848
-6.89632 0 14.2873
-6.84341 0 14.9014
5.3194 0 -9.8308
-13.1186 0 7.95467
-3.02226 0 -15.1161