# vtk DataFile Version 3.0
SiWiRVisFile
ASCII
DATASET UNSTRUCTURED_GRID
POINTS 1600 DOUBLE
76.946 100 73.3923
77.7875 100 74.1816
78.8704 100 74.7568
80.6024 100 74.3579
81.6807 100 75.0989
82.724 100 75.7129
84.402 100 75.1054
85.422 100 75.4667
86.7604 100 75.8435
85.4117 100 74.3733
90.4878 100 75.1938
91.3562 100 74.4754
89.8887 100 74.0875
89.6166 100 72.9192
89.1426 100 71.5239
92.5109 100 66.5151
93.2713 100 67.3013
95.2096 100 65.8351
93.4051 100 62.8889
97.3259 100 64.6032
104.657 100 51.2136
104.21 100 54.2084
104.97 100 53.4613
106.158 100 52.2401
105.124 100 52.2736
107.604 100 52.4422
109.745 100 48.4408
110.925 100 48.1776
110.529 100 49.1538
111.66 100 49.0141
112.834 100 49.015
113.965 100 49.1558
113.567 100 48.1796
114.747 100 48.4393
116.888 100 52.4416
119.369 100 52.2736
118.334 100 52.2402
119.523 100 53.4614
120.282 100 54.2085
119.835 100 51.2135
127.161 100 64.6019
131.087 100 62.8889
129.283 100 65.8352
131.221 100 67.3025
131.982 100 66.515
135.35 100 71.5234
134.874 100 72.9184
134.603 100 74.089
133.136 100 74.475
134.005 100 75.1943
139.081 100 74.3733
137.732 100 75.8434
139.07 100 75.4667
140.09 100 75.1054
141.768 100 75.7129
142.812 100 75.0989
143.89 100 74.3578
145.622 100 74.7568
146.705 100 74.1816
147.546 100 73.3923
76.9115 100 74.9129
77.9126 100 75.4169
79.8978 100 75.2179
80.8214 100 75.7414
81.8279 100 76.2528
83.7464 100 76.0766
84.8497 100 76.3333
85.9406 100 76.656
87.0214 100 76.9814
88.2014 100 77.1
89.3257 100 76.9385
92.4266 100 74.2792
90.7601 100 73.5536
91.5757 100 71.7432
92.4793 100 69.9346
90.3099 100 71.7793
94.3787 100 66.8161
96.2134 100 65.2512
97.3725 100 65.7253
99.6489 100 65.2919
104.131 100 52.6347
99.2495 100 58.2687
105.176 100 59.3712
110.216 100 52.0233
105.865 100 51.1556
108.483 100 53.2621
108.814 100 52.1997
109.447 100 51.1864
108.92 100 49.1249
111.085 100 50.0914
113.408 100 50.0925
115.572 100 49.1236
115.043 100 51.1872
115.679 100 52.2
116.009 100 53.2613
118.627 100 51.1556
114.275 100 52.0236
119.332 100 59.3886
125.243 100 58.2687
120.361 100 52.6347
124.847 100 65.2891
127.116 100 65.7323
128.279 100 65.2549
130.115 100 66.8149
134.183 100 71.7795
132.015 100 69.9315
132.917 100 71.7434
133.735 100 73.5543
132.066 100 74.279
135.167 100 76.9407
136.291 100 77.1001
137.471 100 76.9816
138.552 100 76.656
139.643 100 76.3332
140.746 100 76.0767
142.664 100 76.2528
143.671 100 75.7414
144.595 100 75.2179
146.58 100 75.4169
147.581 100 74.9129
76.9399 100 75.9546
77.9447 100 76.5106
78.8918 100 75.9515
79.9106 100 76.4971
80.8622 100 76.9516
82.8937 100 76.7046
84.0086 100 77.0671
85.0846 100 77.5115
86.2275 100 77.7043
87.2909 100 77.9591
88.5275 100 78.3006
89.5654 100 77.9815
91.2428 100 77.573
91.8477 100 73.3333
93.2058 100 70.6359
94.0789 100 69.7413
94.3205 100 67.9349
95.3442 100 67.2532
96.2115 100 66.5053
98.7229 100 64.6747
99.6401 100 64.0998
103.518 100 60.8599
105.826 100 60.4279
106.7 100 59.8159
106.39 100 56.8957
106.959 100 58.7441
107.385 100 57.8138
105.863 100 58.4917
110.463 100 50.9497
111.625 100 51.0544
112.867 100 51.0531
114.026 100 50.9515
118.628 100 58.4482
117.1 100 57.8091
117.531 100 58.7373
118.106 100 56.9047
117.793 100 59.7944
118.659 100 60.4241
120.953 100 60.8654
124.848 100 64.097
125.775 100 64.6717
128.282 100 66.5041
129.151 100 67.256
130.17 100 67.9361
130.412 100 69.7429
131.292 100 70.6364
132.647 100 73.3352
133.252 100 77.5702
134.926 100 77.9824
135.965 100 78.3006
137.202 100 77.9593
138.265 100 77.7043
139.408 100 77.5114
140.484 100 77.0671
141.599 100 76.7047
143.63 100 76.9516
144.582 100 76.4971
145.601 100 75.9515
146.548 100 76.5106
147.553 100 75.9546
76.9943 100 77.06
77.9262 100 77.6523
79.021 100 77.0891
79.9393 100 77.7469
81.9927 100 77.3879
83.0047 100 77.7853
84.1675 100 78.1414
85.4873 100 78.5798
86.6181 100 78.7973
87.6928 100 79.033
88.8979 100 79.3552
89.9587 100 79.3585
90.7888 100 78.669
92.9875 100 72.8215
92.7016 100 71.6315
94.4923 100 70.9824
95.2851 100 69.7994
94.9188 100 68.7703
95.8818 100 68.2592
96.792 100 67.4621
97.8222 100 67.1694
100.756 100 65.6171
104.75 100 60.5568
105.302 100 62.8259
105.572 100 61.6051
106.731 100 61.0593
108.889 100 60.7492
109.983 100 60.6056
108.125 100 58.5341
111.472 100 52.3324
113.025 100 52.3303
116.382 100 58.5473
114.508 100 60.5951
115.611 100 60.7321
117.759 100 61.05
118.915 100 61.5978
119.2 100 62.8241
119.736 100 60.5626
123.743 100 65.6149
126.666 100 67.1714
127.693 100 67.4641
128.606 100 68.2556
129.571 100 68.7715
129.208 100 69.8017
129.998 100 70.9819
131.798 100 71.6317
131.508 100 72.8201
133.703 100 78.6686
134.533 100 79.3588
135.594 100 79.3556
136.8 100 79.0331
137.874 100 78.7975
139.005 100 78.5798
140.325 100 78.1414
141.488 100 77.7854
142.5 100 77.388
144.553 100 77.747
145.471 100 77.0891
146.566 100 77.6523
147.498 100 77.06
76.9424 100 78.1597
78.0869 100 78.7711
79.0142 100 78.2731
81.0439 100 78.0142
82.0457 100 78.4773
83.1094 100 79.0403
84.2448 100 79.3149
85.442 100 79.728
87.0269 100 79.9431
88.1431 100 80.1222
88.9912 100 81.0919
90.9615 100 79.8511
92.0743 100 78.4071
94.3838 100 72.9985
93.8033 100 71.9571
95.9619 100 71.4138
96.3281 100 70.2964
96.4007 100 69.1699
97.2302 100 68.4897
98.4281 100 68.1822
98.9333 100 66.1524
102.839 100 66.4922
106.372 100 62.7499
107.547 100 61.9902
107.825 100 60.6686
108.501 100 62.3681
109.476 100 61.8345
110.669 100 62.3626
107.775 100 59.5327
111.506 100 53.4003
112.987 100 53.3986
116.707 100 59.5514
113.822 100 62.3668
115.002 100 61.8335
115.984 100 62.359
116.679 100 60.7077
116.942 100 62.0161
118.122 100 62.7688
121.668 100 66.4701
125.572 100 66.144
126.068 100 68.1873
127.264 100 68.4741
128.089 100 69.1701
128.162 100 70.2911
128.55 100 71.4162
130.701 100 71.9564
130.118 100 72.9975
132.415 100 78.4051
133.532 100 79.8514
135.502 100 81.0924
136.349 100 80.1229
137.465 100 79.9435
139.05 100 79.728
140.248 100 79.3144
141.383 100 79.0404
142.447 100 78.4773
143.448 100 78.0142
145.478 100 78.2731
146.405 100 78.7711
147.55 100 78.1597
77.0102 100 79.2153
77.855 100 79.8873
78.9859 100 79.5616
79.9381 100 78.8728
81.0916 100 79.0606
82.1583 100 79.5485
83.0466 100 80.429
84.4917 100 80.4317
85.7213 100 80.7879
86.7583 100 81.0471
87.9139 100 81.1723
89.9405 100 80.673
91.9225 100 80.4572
92.6291 100 77.1025
93.5002 100 76.4115
94.9461 100 71.9939
97.1466 100 72.0751
97.1981 100 70.9003
97.3614 100 69.5514
99.2783 100 69.0686
99.3779 100 67.5443
101.821 100 66.6582
103.668 100 65.4705
105.156 100 65.0992
105.393 100 63.9731
107.355 100 63.1209
108.424 100 63.4701
109.637 100 62.9378
111.36 100 63.3233
111.268 100 61.5774
113.225 100 61.5838
113.13 100 63.3205
114.853 100 62.9303
116.022 100 63.406
117.139 100 63.1313
119.06 100 63.9649
119.343 100 65.0916
120.813 100 65.4788
122.676 100 66.6609
125.115 100 67.5506
125.209 100 69.0716
127.117 100 69.5431
127.276 100 70.887
127.327 100 72.0638
129.551 100 71.9953
130.992 100 76.4116
131.862 100 77.1041
132.571 100 80.4582
134.553 100 80.6726
136.579 100 81.1727
137.734 100 81.0473
138.771 100 80.7873
140.001 100 80.4315
141.446 100 80.429
142.334 100 79.5486
143.401 100 79.0605
144.554 100 78.8728
145.506 100 79.5615
146.637 100 79.8873
147.482 100 79.2153
76.5604 100 80.3273
77.5399 100 80.9492
79.3769 100 80.7561
80.1121 100 80.0038
81.1531 100 80.1094
82.0273 100 80.9389
83.8326 100 81.3673
84.9062 100 81.5214
86.0016 100 81.8234
87.1701 100 82.0047
88.4121 100 82.1697
91.0063 100 81.1363
92.1483 100 81.5167
93.1742 100 78.0894
95.6475 100 74.5766
96.2132 100 72.7163
97.4695 100 73.602
98.258 100 71.2785
98.3954 100 70.0471
100.311 100 68.2059
100.456 100 66.9544
102.733 100 67.5772
104.585 100 66.2153
106.905 100 64.7497
108.256 100 64.5648
109.336 100 64.099
110.138 100 66.0394
110.292 100 63.7391
109.39 100 66.8358
110.434 100 67.8526
114.024 100 67.6858
115.03 100 66.9056
114.218 100 63.7474
114.404 100 66.0564
115.158 100 64.2169
116.232 100 64.5477
117.708 100 64.7301
119.895 100 66.2351
121.762 100 67.5658
124.031 100 66.9647
124.179 100 68.2022
126.113 100 70.0622
126.228 100 71.2964
127.023 100 73.5931
128.267 100 72.7033
128.855 100 74.578
131.321 100 78.0932
132.347 100 81.5189
133.487 100 81.1341
136.079 100 82.1693
137.322 100 82.0057
138.492 100 81.8227
139.586 100 81.521
140.66 100 81.3672
142.465 100 80.9389
143.339 100 80.1094
144.38 100 80.0038
145.116 100 80.7559
146.952 100 80.9492
147.932 100 80.3273
76.5833 100 81.4329
77.4702 100 82.0981
78.472 100 81.5387
79.5091 100 82.0687
80.5205 100 81.0082
80.7112 100 82.2683
83.0244 100 82.0302
84.1816 100 82.3965
85.2349 100 82.7064
86.3722 100 82.8895
87.725 100 83.1138
88.8262 100 83.226
89.9377 100 81.7622
89.7872 100 82.8182
90.5035 100 83.8449
93.1679 100 80.3482
96.7626 100 74.5466
98.321 100 72.6657
99.9154 100 71.1982
99.6259 100 70.1193
100.482 100 69.4587
101.316 100 67.5524
103.798 100 67.0824
106.218 100 65.7183
107.638 100 65.5315
109.214 100 65.306
108.23 100 66.5274
107.985 100 68.3682
109.457 100 68.0752
111.057 100 68.9367
113.467 100 68.8791
115.056 100 68.3344
116.425 100 68.1325
116.211 100 66.4213
115.384 100 65.2872
116.944 100 65.4374
118.271 100 65.7243
120.698 100 67.0771
123.163 100 67.5577
124.019 100 69.4633
124.877 100 70.1236
124.587 100 71.1933
126.191 100 72.6662
127.736 100 74.5624
131.323 100 80.3383
133.989 100 83.8447
134.706 100 82.8177
134.555 100 81.7615
135.666 100 83.2253
136.766 100 83.1139
138.121 100 82.8893
139.258 100 82.7057
140.311 100 82.3958
141.468 100 82.0302
143.781 100 82.2683
143.972 100 81.0082
144.983 100 82.0689
146.02 100 81.5388
147.022 100 82.0981
147.909 100 81.4329
76.3789 100 82.6397
77.3079 100 83.26
78.4391 100 82.6108
79.3981 100 83.1261
80.4775 100 83.6218
80.433 100 85.0459
81.9225 100 83.1547
83.0406 100 83.2554
84.5464 100 83.7088
84.303 100 84.8692
85.9308 100 84.0011
87.1715 100 84.2074
88.2972 100 84.2713
89.3599 100 84.143
91.6309 100 83.7664
92.6242 100 79.4401
97.1809 100 75.5153
98.0478 100 74.5739
99.6041 100 72.4462
100.641 100 72.0068
[...]
POINT_DATA 1600
SCALARS mass double
LOOKUP_TABLE default
1
1
1
1
1
1
1
1
1
1
1
1
1
1
1
1
1
1
1
1
1
1
1
1
1
1
1
1
1
1
1
1
1
1
1
1
1
1
1
1
1
1
1
1
1
1
1
1
1
1
1
1
1
1
1
1
1
1
1
1
1
1
1
1
1
1
1
1
1
1
1
1
1
1
1
1
1
1
1
1
1
1
1
1
1
1
1
1
1
1
1
1
1
1
1
1
1
1
1
1
1
1
1
1
1
1
1
1
1
1
1
1
1
1
1
1
1
1
1
1
1
1
1
1
1
1
1
1
1
1
1
1
1
1
1
1
1
1
1
1
1
1
1
1
1
1
1
1
1
1
1
1
1
1
1
1
1
1
1
1
1
1
1
1
1
1
1
1
1
1
1
1
1
1
1
1
1
1
1
1
1
1
1
1
1
1
1
1
1
1
1
1
1
1
1
1
1
1
1
1
1
1
1
1
1
1
1
1
1
1
1
1
1
1
1
1
1
1
1
1
1
1
1
1
1
1
1
1
1
1
1
1
1
1
1
1
1
1
1
1
1
1
1
1
1
1
1
1
1
1
1
1
1
1
1
1
1
1
1
1
1
1
1
1
1
1
1
1
1
1
1
1
1
1
1
1
1
1
1
1
1
1
1
1
1
1
1
1
1
1
1
1
1
1
1
1
1
1
1
1
1
1
1
1
1
1
1
1
1
1
1
1
1
1
1
1
1
1
1
1
1
1
1
1
1
1
1
1
1
1
1
1
1
1
1
1
1
1
1
1
1
1
1
1
1
1
1
1
1
1
1
1
1
1
1
1
1
1
1
1
1
1
1
1
1
1
1
1
1
1
1
1
1
1
1
1
1
1
1
1
1
1
1
1
1
1
1
1
1
1
1
1
1
1
1
1
1
1
1
1
1
1
1
1
1
1
1
1
1
1
1
1
1
1
1
1
1
1
1
1
1
1
1
1
1
1
1
1
1
1
1
1
1
1
1
1
1
1
1
1
1
1
1
1
1
1
1
1
1
1
1
1
1
1
1
1
1
1
1
1
1
1
1
1
1
1
1
1
1
1
1
1
1
1
1
1
1
1
1
1
1
1
1
1
1
1
1
1
1
1
1
1
1
1
1
1
1
1
1
1
1
1
1
1
1
1
1
1
1
1
1
1
1
1
1
1
1
1
1
1
1
1
1
1
1
1
1
1
1
1
1
1
1
1
1
1
1
1
1
1
1
1
1
1
1
1
1
1
1
1
1
1
1
1
1
1
1
1
1
1
1
1
1
1
1
1
1
1
1
1
1
1
1
1
1
1
1
1
1
1
1
1
1
1
1
1
1
1
1
1
1
1
1
1
1
1
1
1
1
1
1
1
1
1
1
1
1
1
1
1
1
1
1
1
1
1
1
1
1
1
1
1
1
1
1
1
1
1
1
1
1
1
1
1
1
1
1
1
1
1
1
1
1
1
1
1
1
1
1
1
1
1
1
1
1
1
1
1
1
1
1
1
1
1
1
1
1
1
1
1
1
1
1
1
1
1
1
1
1
1
1
1
1
1
1
1
1
1
1
1
1
1
1
1
1
1
1
1
1
1
1
1
1
1
1
1
1
1
1
1
1
1
1
1
1
1
1
1
1
1
1
1
1
1
1
1
1
1
1
1
1
1
1
1
1
1
1
1
1
1
1
1
1
1
1
1
1
1
1
1
1
1
1
1
1
1
1
1
1
1
1
1
1
1
1
1
1
1
1
1
1
1
1
1
1
1
1
1
1
1
1
1
1
1
1
1
1
1
1
1
1
1
1
1
1
1
1
1
1
1
1
1
1
1
1
1
1
1
1
1
1
1
1
1
1
1
1
1
1
1
1
1
1
1
1
1
1
1
1
1
1
1
1
1
1
1
1
1
1
1
1
1
1
1
1
1
1
1
1
1
1
1
1
1
1
1
1
1
1
1
1
1
1
1
1
1
1
1
1
1
1
1
1
1
1
1
1
1
1
1
1
1
1
1
1
1
1
1
1
1
1
1
1
1
1
1
1
1
1
1
1
1
1
1
1
1
1
1
1
1
1
1
1
1
1
1
1
1
1
1
1
1
1
1
1
1
1
1
1
1
1
1
1
1
1
1
1
1
1
1
1
1
1
1
1
1
1
1
1
1
1
1
1
1
1
1
1
1
1
1
1
1
1
1
1
1
1
1
1
1
1
1
1
1
1
1
1
1
1
1
1
1
1
1
1
1
1
1
1
1
1
1
1
1
1
1
1
1
1
1
1
1
1
1
1
1
1
1
1
1
1
1
1
1
1
1
1
1
1
1
1
1
1
1
1
1
1
1
1
1
1
1
1
1
1
1
1
1
1
1
1
1
1
1
1
1
1
1
1
1
1
1
1
1
1
1
1
1
1
1
1
1
1
1
1
1
1
1
1
1
1
1
1
1
1
1
1
1
1
1
1
1
1
1
1
1
1
1
1
1
1
1
1
1
1
1
1
1
1
1
1
1
1
1
1
1
1
1
1
1
1
1
1
1
1
1
1
1
1
1
1
1
1
1
1
1
1
1
1
1
1
1
1
1
1
1
1
1
1
1
1
1
1
1
1
1
1
1
1
1
1
1
1
1
1
1
1
1
1
1
1
1
1
1
1
1
1
1
1
1
1
1
1
1
1
1
1
1
1
1
1
1
1
1
1
1
1
1
1
1
1
1
1
1
1
1
1
1
1
1
1
1
1
1
1
1
1
1
1
1
1
1
1
1
1
1
1
1
1
1
1
1
1
1
1
1
1
1
1
1
1
1
1
1
1
1
1
1
1
1
1
1
1
1
1
1
1
1
1
1
1
1
1
1
1
1
1
1
1
1
1
1
1
1
1
1
1
1
1
1
1
1
1
1
1
1
1
1
1
1
1
1
1
1
1
1
1
1
1
1
1
1
1
1
1
1
1
1
1
1
1
1
1
1
1
1
1
1
1
1
1
1
1
1
1
1
1
1
1
1
1
1
1
1
1
1
1
1
1
1
1
1
1
1
1
1
1
1
1
1
1
1
1
1
1
1
1
1
1
1
1
1
1
1
1
1
1
1
1
1
1
1
1
1
1
1
1
1
1
1
1
1
1
1
1
1
1
1
1
1
1
1
1
1
1
1
1
1
1
1
1
1
1
1
1
1
1
1
1
1
1
1
1
1
1
1
1
1
1
1
1
1
1
1
1
1
1
1
1
1
1
1
1
1
1
1
1
1
1
1
1
1
1
1
1
1
1
1
1
1
1
1
1
1
1
1
1
1
1
1
1
1
1
1
1
1
1
1
1
1
1
1
1
1
1
1
1
1
1
1
1
1
1
1
1
1
1
1
1
1
1
1
1
1
1
1
1
1
1
1
1
1
1
1
1
1
1
1
1
1
1
1
1
1
1
1
1
1
1
1
1
1
1
1
1
1
1
1
1
1
1
1
1
1
1
1
1
1
1
1
1
1
1
1
1
1
1
1
1
1
1
1
1
1
1
1
1
1
1
1
1
1
1
1
1
1
1
1
1
1
1
1
1
1
1
1
1
1
1
1
1
1
1
1
1
1
1
1
1
1
1
1
1
1
1
1
1
1
1
1
1
1
1
1
1
1
1
1
1
1
VECTORS force double
5.18528 0 10.4706
3.54665 0 17.7099
-15.1411 0 11.9571
10.4055 0 13.2391
18.4309 0 -3.7721
-1.81027 0 -136.747
-9.33658 0 7.43909
57.1899 0 -14.1019
-12.4751 0 12.8278
-9.51787 0 -1.92819
-3.86521 0 -14.3468
-9.96602 0 -2.0508
-57.3211 0 41.249
16.4262 0 1.54755
12.8315 0 8.38727
-5.89932 0 -7.30723
29.3278 0 9.4158
10.0479 0 19.4072
0 0 0
-1.14443 0 7.1933
13.9718 0 12.6586
-20.2319 0 15.0958
16.7425 0 -39.942
61.8072 0 -0.184425
-24.009 0 -14.2193
12.9157 0 3.75332
6.70577 0 -38.9824
1.8915 0 -33.7653
3.74422 0 48.8155
2.10713 0 14.174
-2.83618 0 14.8485
-3.12607 0 47.5707
-1.09743 0 -33.7804
-7.09837 0 -38.4724
-12.9253 0 3.76851
24.4476 0 -14.142
-62.0167 0 -0.160587
-16.7148 0 -39.9405
20.2148 0 15.0768
-14.0092 0 12.6776
0.571497 0 9.29229
0 0 0
-9.72134 0 19.4419
-29.0104 0 9.07238
5.56509 0 -6.98008
-12.8405 0 8.38058
-16.5091 0 1.66528
60.4841 0 43.329
10.8728 0 -2.14175
3.57691 0 -14.6063
9.51806 0 -1.95141
12.4797 0 12.8732
-57.1717 0 -14.0626
9.327 0 7.44648
1.86178 0 -136.748
-18.4284 0 -3.76837
-10.4028 0 13.2369
15.1314 0 11.9623
-3.54459 0 17.711
-5.18555 0 10.4703
3.86319 0 -57.2454
7.63506 0 -27.4587
-38.8064 0 7.16221
1.9744 0 41.3355
-43.2927 0 31.7041
30.989 0 -90.7576
-28.9535 0 46.9633
-14.3313 0 -19.244
-2.09711 0 -107.891
-11.7246 0 20.9564
-10.3236 0 -19.5131
15.5554 0 -3.35567
49.205 0 -51.5271
-6.55659 0 4.77098
-67.385 0 -65.8399
-3.10364 0 8.37898
-31.675 0 -17.696
13.9509 0 15.5855
-11.5594 0 6.17318
9.573 0 -6.04545
-24.1313 0 17.8942
0 0 0
6.27531 0 24.5563
1.94424 0 7.46503
-16.8601 0 9.95699
-8.4441 0 -5.28705
3.44706 0 -11.2342
-50.1101 0 22.1312
-13.643 0 16.0622
28.301 0 -31.9282
-28.841 0 -33.5181
13.4675 0 15.9378
48.8967 0 21.6499
-3.54298 0 -11.5904
8.56688 0 -4.94439
16.8911 0 9.92757
-2.11084 0 8.01645
-13.2295 0 15.5339
0 0 0
23.889 0 17.8201
-8.5529 0 -6.05841
11.3278 0 4.14179
-13.9894 0 15.5247
31.4254 0 -17.0288
3.13612 0 8.43153
66.5769 0 -65.6563
8.25813 0 4.93518
-52.645 0 -53.3881
-16.0333 0 -3.27827
10.5062 0 -20.1399
11.7207 0 20.952
2.02823 0 -108.146
14.3064 0 -19.2578
28.9467 0 46.932
-31.0642 0 -90.7611
43.2802 0 31.6965
-1.99827 0 41.344
38.832 0 7.14473
-7.64136 0 -27.4548
-3.86098 0 -57.2554
5.77282 0 50.2469
7.35984 0 17.3706
24.3887 0 -11.2593
-10.4177 0 -39.0643
40.2779 0 -8.55816
-10.4644 0 112.98
4.3195 0 64.1337
10.0913 0 -18.198
-31.5558 0 35.543
68.5263 0 73.8884
-24.4654 0 -15.2318
25.3855 0 33.6324
6.64494 0 15.4633
6.56873 0 -3.32885
93.5418 0 68.9833
11.1929 0 10.306
-36.3343 0 -65.9886
31.0681 0 18.2583
-6.40428 0 -17.1062
-25.8635 0 14.4305
14.6019 0 3.40628
12.5406 0 -2.99407
-18.1296 0 9.40373
17.9692 0 3.67244
6.76903 0 10.6054
-20.4795 0 63.7987
-22.2945 0 -115.166
8.63316 0 0.108217
39.7074 0 9.48985
4.58285 0 16.9242
-5.25582 0 17.5584
-37.382 0 10.6965
-4.29314 0 8.67325
24.2009 0 -119.032
20.1816 0 60.0521
-6.68161 0 11.179
-14.5366 0 10.2461
20.0492 0 6.7518
-12.7521 0 -3.0888
-11.0002 0 5.71445
22.2812 0 12.5445
5.86641 0 -14.8614
-30.8813 0 17.4075
36.1508 0 -66.188
-11.1568 0 10.3116
-92.4643 0 68.9902
-6.36189 0 -3.46065
-6.84557 0 15.8342
-25.6135 0 34.5318
24.4585 0 -15.1065
-68.6099 0 73.9945
31.6893 0 35.673
-10.0285 0 -18.1959
-4.32368 0 64.1456
10.4895 0 113.048
-40.3082 0 -8.55296
10.4662 0 -39.0749
-24.3937 0 -11.2534
-7.36496 0 17.3642
-5.7695 0 50.2528
-9.75897 0 -1.821
31.9088 0 -0.967709
-41.0385 0 20.3662
36.4295 0 -31.702
-25.9423 0 -26.9646
27.6143 0 32.5298
-9.48569 0 28.8247
-4.76036 0 -1.2262
-29.3609 0 19.8652
16.7285 0 11.1022
-25.1996 0 -16.8774
11.9802 0 15.6186
23.3891 0 -15.727
-1.44014 0 -10.6826
6.18282 0 13.4503
-12.8324 0 -12.6903
7.16535 0 12.9414
24.4424 0 56.9151
0.878996 0 -52.7127
-37.526 0 13.9469
29.0314 0 0.0400674
-6.14645 0 11.6188
-15.6042 0 1.69118
-18.6316 0 -4.26748
9.81942 0 -5.99056
10.0879 0 4.38678
21.1916 0 15.2754
5.07978 0 12.7864
44.2224 0 14.1525
-5.383 0 -42.7638
5.62214 0 -42.405
-47.9181 0 15.0456
-2.2944 0 13.0157
-23.0789 0 12.8642
-7.91962 0 7.80374
-9.06969 0 -6.53696
13.7438 0 -4.93913
14.4187 0 1.85079
5.69805 0 11.313
-30.6843 0 -0.456536
42.6508 0 5.89982
-0.715144 0 -49.5991
-26.0595 0 55.4451
-6.9463 0 13.1514
12.6231 0 -12.6417
-7.13081 0 12.9435
1.64077 0 -10.3219
-23.1729 0 -15.6937
-11.6097 0 15.1843
25.3085 0 -16.7707
-16.8366 0 11.0363
29.3843 0 19.878
4.7445 0 -1.2438
9.46072 0 28.7547
-27.5745 0 32.468
25.9201 0 -26.9436
-36.4412 0 -31.7255
41.0257 0 20.3641
-31.9167 0 -0.95626
9.76541 0 -1.81923
4.95904 0 -19.457
-43.1663 0 24.6579
-7.28437 0 -13.3321
-10.9482 0 -26.3481
22.5271 0 -6.44421
19.9834 0 -21.3527
6.40851 0 -4.62576
-12.9754 0 -14.7954
-5.59373 0 -2.89055
-8.89473 0 -6.09673
-39.6725 0 25.9482
-2.25956 0 8.87015
-4.47838 0 -2.50083
-8.46083 0 -16.7112
0.294005 0 -0.396926
9.19175 0 2.83124
-27.3358 0 -21.6264
-66.5371 0 34.9865
20.6453 0 -47.3292
-5.59787 0 2.70278
-3.88393 0 4.90696
73.5947 0 -28.404
-14.3411 0 -25.8602
-77.3776 0 -34.4544
-42.2154 0 2.83148
66.9674 0 29.0062
10.8021 0 -18.0705
-108.104 0 134.869
-9.8843 0 34.7631
7.39679 0 23.8777
-7.4916 0 23.4129
13.3835 0 39.1262
113.018 0 140.215
-10.0244 0 -20.1894
-81.69 0 -8.28777
35.9435 0 0.0140482
89.1756 0 -39.4861
22.9675 0 -24.8668
-84.1733 0 -24.8071
4.37611 0 3.99265
5.29205 0 2.47316
-20.4376 0 -31.8707
55.5254 0 33.1754
22.6268 0 -14.7704
-9.36799 0 0.894127
-3.13577 0 -0.727236
8.7431 0 -16.8068
5.99486 0 -2.48202
1.94124 0 9.04152
40.5122 0 26.1913
8.63725 0 -6.31494
5.64948 0 -2.90531
13.0392 0 -14.9805
-6.4379 0 -4.52821
-20.0164 0 -21.368
-22.5046 0 -6.47342
10.92 0 -26.3896
7.31054 0 -13.3371
43.1774 0 24.6548
-4.95625 0 -19.4729
-6.19491 0 30.1557
19.7986 0 4.961
4.49796 0 -5.77513
14.6257 0 11.2112
-9.20553 0 11.0125
-21.4693 0 42.9247
4.5095 0 -4.76187
10.7529 0 4.84558
-28.8281 0 -29.5054
25.7897 0 -54.491
-33.2086 0 14.5267
64.1144 0 -52.1009
7.55855 0 -27.3767
-11.2249 0 13.5361
1.86657 0 0.413015
6.83564 0 7.30143
7.78809 0 -9.57641
23.9609 0 18.9538
55.4646 0 63.9159
0.652384 0 -13.2271
5.35011 0 -2.2137
-32.561 0 -43.1457
6.01827 0 17.726
3.74607 0 12.9622
4.08303 0 -1.36748
47.2859 0 8.45926
5.29358 0 -7.15519
-50.123 0 -38.6671
-11.7742 0 -8.81957
87.4864 0 -119.259
-92.3574 0 -125.544
14.3966 0 -7.35173
50.1302 0 -36.5789
-9.47816 0 50.9028
-55.6169 0 14.4201
-5.54159 0 0.71532
-5.79026 0 11.6391
-6.30785 0 18.2444
36.349 0 -48.991
-4.62076 0 -1.89343
-0.598442 0 -14.9966
-43.5922 0 51.9675
-20.6771 0 13.7144
-8.76673 0 -8.4132
-3.89096 0 8.24104
-1.78171 0 0.43689
11.1235 0 13.5738
-7.98564 0 -27.2351
-64.5807 0 -52.6439
32.6531 0 14.5065
-25.7512 0 -53.5671
28.7377 0 -29.5107
-10.7377 0 4.77176
-4.50176 0 -4.76105
21.5009 0 42.9585
9.20484 0 11.0871
-14.6584 0 11.2222
-4.48653 0 -5.76376
-19.7788 0 4.98593
6.18412 0 30.1749
20.4567 0 -14.1397
9.37841 0 -7.88003
-32.1178 0 36.0189
-27.8687 0 -64.3209
65.2463 0 40.9128
-5.11899 0 -12.8513
12.302 0 -58.9386
10.6047 0 14.9206
-4.49711 0 41.7695
18.2158 0 64.9351
-1.30032 0 0.893255
-4.94593 0 -8.26856
-4.08699 0 8.00685
-32.7713 0 -28.9538
0.166339 0 -1.02668
-2.1135 0 -10.9522
9.79244 0 -4.23054
-1.74766 0 1.08652
7.09894 0 4.38807
3.07835 0 -1.39675
-40.6371 0 -20.5601
-10.2998 0 10.5216
0.106044 0 3.4401
-15.1811 0 -11.4641
3.80032 0 12.5161
-76.8123 0 33.5956
-1.39432 0 -12.8756
115.141 0 9.08374
-14.3996 0 17.3727
110.586 0 -17.3443
16.5736 0 8.23308
25.7342 0 38.3535
-79.9325 0 18.0918
-11.1091 0 -35.1879
40.1907 0 -9.55962
6.91142 0 -4.75447
39.3096 0 -34.1687
-1.07264 0 1.92851
9.97084 0 6.97069
37.4529 0 -17.5201
-3.90097 0 -1.27762
-9.16919 0 7.02941
2.4469 0 2.0584
-10.1674 0 -1.36722
1.17202 0 -11.5788
-1.08485 0 -1.06157
32.1629 0 -29.5167
4.35077 0 7.67056
5.23094 0 -7.99237
1.42769 0 0.650078
-17.6013 0 64.1798
4.00319 0 42.2193
-10.461 0 14.8119
-12.1498 0 -59.2003
5.11472 0 -12.849
-65.2146 0 40.8879
27.7915 0 -64.348
32.1431 0 36.0474
-9.53159 0 -7.92525
-20.4583 0 -14.1418
-23.7071 0 25.2795
-9.62167 0 3.94978
16.0687 0 -20.7973
0.399949 0 -40.3929
-5.4858 0 33.9999
-13.7774 0 -1.1449
-30.6504 0 39.3788
-14.3976 0 17.2757
13.5679 0 -0.907675
7.11792 0 3.84362
-14.4921 0 0.812176
-59.6076 0 -2.96805
3.08758 0 -22.643
39.5228 0 23.0986
-23.8356 0 0.130585
19.1965 0 32.4275
6.153 0 -42.4115
-21.1066 0 -35.2266
-14.0696 0 -0.46207
-25.3571 0 14.3005
3.85319 0 -26.2894
4.48282 0 98.3589
-35.7931 0 -68.5643
-23.0836 0 -28.7482
18.0541 0 21.3648
-6.39722 0 -5.70393
-1.89242 0 -7.16596
12.592 0 -16.8854
-118.139 0 32.0024
-16.3028 0 0.47253
17.4321 0 -0.65366
14.6894 0 -36.8523
-13.0518 0 16.7485
2.44199 0 -10.8845
2.12375 0 25.5014
-38.415 0 49.8112
13.9901 0 -31.5321
39.1248 0 -72.8761
2.43114 0 103.909
-3.13724 0 -26.0367
25.5301 0 12.4353
8.96026 0 7.8709
18.6558 0 -28.3504
-0.558426 0 -52.0264
-22.9756 0 37.5993
23.8399 0 0.18714
-39.8903 0 22.7918
-3.1159 0 -22.2654
59.4723 0 -2.6159
14.9928 0 0.743755
-6.99583 0 3.64767
-13.71 0 -0.890176
14.3843 0 17.5324
30.5986 0 39.3128
13.7622 0 -1.14156
5.50133 0 33.9906
-0.381691 0 -40.2472
-15.9785 0 -20.9389
9.6867 0 3.89391
23.8437 0 25.2867
13.5954 0 -10.6764
17.4555 0 1.43579
-4.41896 0 17.1076
12.5501 0 52.3403
-12.2712 0 -0.651552
-3.38493 0 10.0653
-4.70615 0 6.76176
7.14873 0 -9.89238
9.81614 0 -4.41647
2.23938 0 2.92281
41.8422 0 -63.0492
9.91208 0 -24.1755
-24.9133 0 5.00515
26.792 0 -3.74556
-5.35317 0 6.96708
-17.5472 0 -37.1195
26.8926 0 23.8979
-31.1548 0 -0.0322521
-11.5714 0 -0.990062
23.9018 0 10.1526
2.70715 0 -7.67792
-0.515489 0 40.9475
33.3504 0 -0.387187
-11.5462 0 -7.81317
-3.13318 0 19.295
31.8193 0 17.6036
9.21889 0 11.4509
59.8995 0 7.1849
-8.54411 0 -4.50635
10.0874 0 -21.6097
-37.4998 0 -1.19346
8.98597 0 20.3333
-17.3105 0 0.864888
-10.043 0 16.704
-24.431 0 5.59141
3.25396 0 18.6439
14.293 0 4.50862
-32.5812 0 0.479059
0.863434 0 42.2604
-3.50813 0 -6.96378
-18.4859 0 5.83422
10.8802 0 -1.5961
35.137 0 -1.72669
-32.2212 0 32.2063
21.295 0 -42.4454
5.2838 0 7.06031
-27.0239 0 -3.36853
24.5739 0 4.9141
-9.66871 0 -23.7678
-41.5348 0 -62.596
-2.71097 0 2.71703
-9.73219 0 -4.34959
-7.19085 0 -9.89324
4.75605 0 6.74567
3.38984 0 10.1061
12.2888 0 -0.66336
-12.5102 0 52.1463
4.15974 0 17.3634
-17.4608 0 1.43474
-13.5963 0 -10.6745
8.9531 0 -11.0082
7.14867 0 -13.5902
0.878455 0 8.76081
-18.5962 0 35.0068
27.8855 0 -83.6618
-0.236185 0 -16.429
-7.92246 0 -11.0467
-11.964 0 1.10903
36.9887 0 12.0534
-1.49862 0 -9.40566
-30.0885 0 67.7915
58.1285 0 -74.1069
-24.0874 0 -14.9148
24.1357 0 -3.48293
24.8135 0 24.3713
0.478461 0 0.412359
-20.7975 0 5.16353
13.9075 0 48.1498
-12.7112 0 34.588
-3.48375 0 38.9311
27.6272 0 -6.78564
-0.975468 0 -7.78648
-7.58444 0 -4.42308
6.69531 0 3.67938
0.833457 0 -2.96792
14.2676 0 -12.7951
3.81176 0 8.51798
-53.3276 0 33.7485
8.41128 0 0.333126
5.25104 0 -12.8582
5.94811 0 -13.6621
8.92879 0 1.94938
14.6128 0 -5.00205
-1.50044 0 7.10165
-14.0164 0 -9.52685
-2.26386 0 -2.42815
-4.53464 0 4.34722
7.66504 0 -3.60658
-0.0848236 0 -8.50572
-8.06139 0 -7.88331
-0.677799 0 35.6853
0.00631842 0 34.5326
-14.9437 0 48.8445
15.3778 0 6.91639
-0.744919 0 0.395409
-24.7996 0 22.7765
-23.8675 0 -3.36182
23.0157 0 -16.0642
-57.5617 0 -73.1511
30.9835 0 67.4692
1.2852 0 -9.67551
-37.0001 0 11.8956
12.1124 0 0.832956
7.9277 0 -10.9234
0.216072 0 -16.2161
-27.7527 0 -83.4936
18.5346 0 34.8079
-0.822052 0 8.81396
-7.14264 0 -13.6136
-8.96473 0 -11.0065
9.56077 0 -17.4545
1.17075 0 24.7435
13.2327 0 -15.8343
18.694 0 -8.39818
-0.441288 0 45.0182
-0.827426 0 4.7192
-15.5024 0 -3.83664
-2.38904 0 -12.8311
1.46031 0 -5.12557
66.1359 0 36.3067
-83.5566 0 94.4269
-10.251 0 -18.1569
26.3327 0 -86.711
3.05093 0 -79.1594
-14.9636 0 7.858
8.70289 0 13.0303
19.7181 0 -10.112
-38.1948 0 13.3561
-14.9074 0 8.06508
5.99103 0 -9.57797
18.336 0 -27.2785
-61.1344 0 -2.53866
25.2049 0 -9.08779
0.305641 0 10.3148
0.736114 0 7.0873
2.88578 0 19.9706
-48.1 0 -35.3983
2.52953 0 1.92991
35.3622 0 -15.9381
-9.22898 0 -3.82716
7.66071 0 -2.06675
-16.6014 0 17.8899
1.31182 0 -0.556347
76.1213 0 -27.4381
7.43208 0 0.683068
-0.933804 0 7.145
-1.87527 0 9.71452
-29.6963 0 -10.2394
47.6937 0 -2.24624
-10.1794 0 -19.2198
-4.88991 0 -9.63202
15.3103 0 7.5834
49.2566 0 6.45021
-19.5604 0 -10.0975
-8.68655 0 12.872
14.613 0 8.25037
-2.72237 0 -83.6635
-26.4643 0 -85.7237
7.86611 0 -11.7598
84.3359 0 92.4101
-68.1467 0 37.2187
-1.29501 0 -5.25616
1.98059 0 -13.2773
15.5297 0 -4.13504
0.738396 0 4.68134
0.518923 0 45.0082
-18.7021 0 -8.41025
-13.2758 0 -15.8455
-1.14399 0 24.7562
-9.56544 0 -17.4704
5.94641 0 13.0395
-16.3173 0 14.219
2.06032 0 -4.36026
65.8629 0 -68.8855
-26.6508 0 1.23434
42.6812 0 -18.3962
5.82492 0 16.2007
0.761585 0 14.0284
8.79261 0 34.6327
-57.5321 0 -15.2371
-0.983777 0 -39.4227
1.18636 0 -0.549054
-9.96608 0 6.07051
17.772 0 42.2887
-0.570331 0 -28.4507
-9.0975 0 3.66176
-2.10928 0 1.78166
5.43673 0 -14.3976
16.1967 0 -8.48627
-48.4953 0 -0.825812
-16.0654 0 24.6405
-12.1938 0 -6.3763
53.3253 0 21.6932
-75.2624 0 6.81211
16.8286 0 -13.2098
-4.13809 0 -7.2114
83.22 0 23.4985
27.2036 0 19.3631
-135.984 0 -44.5693
-1.07871 0 1.00721
0.76822 0 -0.50815
33.8715 0 -36.0961
-31.2195 0 19.4195
-82.9329 0 18.2209
5.6565 0 -7.2264
-16.012 0 -9.77508
86.8368 0 14.7246
-41.4813 0 16.2636
15.8573 0 -19.4972
9.48833 0 18.5372
55.7352 0 2.82502
-16.5734 0 -8.63523
-5.8567 0 -14.0291
2.6335 0 1.91419
9.15257 0 3.57214
0.950498 0 -29.6902
-16.9941 0 52.4301
22.397 0 -4.86348
-1.28192 0 -1.21278
1.26248 0 -37.292
59.6478 0 -15.5601
-10.5277 0 32.57
-0.649127 0 14.5966
-5.78308 0 16.3251
-42.6735 0 -18.3631
26.6476 0 1.22055
-65.9591 0 -68.9458
-1.92556 0 -4.49131
16.3574 0 14.216
-5.93164 0 13.0481
7.1607 0 21.2338
-69.8847 0 47.751
13.0525 0 9.9895
-13.5185 0 -2.41599
6.3208 0 15.2044
10.8542 0 10.0572
10.9665 0 0.424762
-17.1907 0 -18.3234
-13.1306 0 13.8344
20.5398 0 -30.783
5.47866 0 -9.81628
-8.02553 0 3.05329
-52.205 0 50.632
27.1594 0 24.1482
-14.5428 0 6.14378
-53.7126 0 -0.0252243
26.312 0 -22.8518
9.31948 0 -7.35019
15.5056 0 -7.30437
17.8738 0 -10.1189
-45.1192 0 -133.343
-41.25 0 -43.4452
34.5126 0 13.1921
66.912 0 -5.97054
-20.5949 0 -31.5903
-24.5199 0 -35.416
-9.53969 0 13.5288
5.11282 0 -23.2999
58.7516 0 60.5411
9.96631 0 1.97273
-8.18239 0 -1.65744
-29.2317 0 20.7899
-16.2436 0 -8.77411
6.88854 0 14.5333
25.3544 0 -33.746
10.7838 0 -30.9014
-76.5413 0 3.76105
-34.5445 0 18.1659
44.4537 0 -47.5798
42.8067 0 -139.059
-26.3885 0 -5.4043
-14.6371 0 -6.84565
-9.61053 0 -8.9846
-28.8639 0 -21.9268
56.671 0 1.37694
13.5917 0 4.26768
-40.1195 0 26.5289
53.0725 0 55.0752
7.64247 0 3.28319
-5.53227 0 -9.90721
-19.6836 0 -29.1129
13.77 0 14.233
17.2189 0 -18.3147
-10.9721 0 0.370405
-10.8548 0 10.0982
-6.49898 0 15.2359
13.5395 0 -2.49959
-13.1389 0 9.97138
69.958 0 47.8211
-7.14078 0 21.2265
26.4549 0 -13.8579
0.985223 0 15.4159
-9.04299 0 -13.2534
-87.6682 0 -76.5618
3.58174 0 11.4894
-6.05511 0 3.21834
-1.3558 0 0.136815
-7.83235 0 -7.09082
-24.6842 0 15.17
-2.05331 0 -18.4606
-6.86963 0 -12.0775
-2.67546 0 39.4582
-7.41022 0 -26.7852
31.2732 0 -63.0891
-0.432556 0 -4.10929
26.1337 0 21.6455
-2.31107 0 -13.2267
9.91896 0 2.24357
13.4035 0 13.4653
-12.0536 0 20.8038
22.4079 0 0.494835
7.24954 0 6.32847
5.8191 0 6.5108
-6.03176 0 6.54983
-45.0064 0 -24.2598
35.0323 0 4.39206
-7.89591 0 -2.77992
-13.617 0 0.0131085
-13.1514 0 27.2685
-3.58681 0 8.32799
3.53818 0 9.36174
9.53954 0 22.2264
11.824 0 2.29121
6.53883 0 -3.48451
-24.6 0 -3.28107
34.2771 0 -35.2753
7.81962 0 7.60079
-6.09931 0 6.42835
-6.49916 0 -2.18533
-20.724 0 1.89278
15.2041 0 20.9236
-14.2929 0 14.148
-10.4386 0 1.08879
2.33866 0 -13.0577
-25.4825 0 22.3717
1.18383 0 -2.90154
-31.8076 0 -60.315
9.17535 0 -26.2736
3.11249 0 37.9417
7.9737 0 -13.4515
2.10013 0 -17.6629
24.0631 0 14.3354
7.76036 0 -7.22734
1.30507 0 0.280189
5.99416 0 3.24378
-3.61762 0 11.5401
86.3406 0 -75.7216
9.26502 0 -13.2274
-0.877227 0 15.4763
-26.4569 0 -13.8764
20.0213 0 18.6457
-59.2856 0 -63.6245
68.894 0 48.0903
-40.2608 0 28.1167
138.551 0 44.7758
-38.959 0 -22.8434
-0.73228 0 -45.3702
-64.0874 0 -38.8222
-0.433625 0 -2.29835
-9.21954 0 3.85219
26.4958 0 -15.2666
20.7513 0 11.3272
-1.2027 0 -1.9286
-12.1821 0 58.5939
10.8079 0 7.99467
-19.7617 0 -1.67891
6.07084 0 45.1454
-3.52508 0 6.93302
-5.79552 0 10.1683
2.32232 0 -6.99262
-2.66301 0 4.07191
45.2917 0 145.701
-6.36887 0 15.8812
1.96867 0 -19.7729
3.86929 0 48.8963
7.18551 0 1.68259
3.93976 0 26.1757
-37.6788 0 -45.0219
11.2339 0 -25.9474
5.14755 0 -3.18008
-5.12357 0 2.78404
-6.52206 0 -27.3362
18.1149 0 -23.6032
-2.82284 0 26.3097
-8.29731 0 3.30629
-4.31994 0 56.2012
-11.4501 0 -20.1156
6.66353 0 14.9445
-43.6698 0 152.275
-0.577853 0 11.282
-1.59642 0 -6.22859
6.17771 0 9.02162
1.99315 0 10.0004
-6.01413 0 39.6341
13.7273 0 -10.5287
0.487107 0 12.4139
10.2376 0 49.0045
-0.0185306 0 -12.7178
-21.8991 0 12.9385