# vtk DataFile Version 3.0
SiWiRVisFile
ASCII
DATASET UNSTRUCTURED_GRID
POINTS 1600 DOUBLE
79.1653 100 75.7839
80.1492 100 76.2784
81.142 100 76.7374
82.6077 100 76.2387
83.718 100 76.498
84.8458 100 76.6843
85.9507 100 76.7451
87.0747 100 76.8143
88.1055 100 76.9136
89.1619 100 77.0003
90.289 100 77.079
91.3916 100 77.0934
92.4938 100 77.0375
93.7083 100 76.9845
94.9047 100 76.8438
95.9374 100 76.9052
97.0234 100 76.4252
98.0285 100 76.2165
99.1403 100 76.0819
100.132 100 75.6476
102.33 100 70.7794
102.965 100 72.5526
103.779 100 71.5923
104.893 100 71.5294
106.049 100 71.4697
107.159 100 71.4259
108.258 100 71.3091
109.539 100 71.3621
110.829 100 71.2043
111.669 100 70.474
112.824 100 70.474
113.663 100 71.2043
114.954 100 71.3621
116.234 100 71.3091
117.333 100 71.4259
118.444 100 71.4697
119.599 100 71.5294
120.713 100 71.5923
121.527 100 72.5526
122.163 100 70.7794
124.36 100 75.6476
125.352 100 76.0819
126.464 100 76.2165
127.469 100 76.4252
128.555 100 76.9052
129.588 100 76.8438
130.784 100 76.9845
131.999 100 77.0375
133.101 100 77.0934
134.203 100 77.079
135.33 100 77.0003
136.387 100 76.9136
137.418 100 76.8143
138.542 100 76.7451
139.647 100 76.6843
140.774 100 76.498
141.885 100 76.2387
143.35 100 76.7374
144.343 100 76.2784
145.327 100 75.7839
79.2152 100 76.9239
80.2855 100 77.3603
82.125 100 77.257
83.184 100 77.4642
84.2356 100 77.6267
85.3516 100 77.733
86.4687 100 77.7719
87.5243 100 77.8777
88.6132 100 77.9681
89.7118 100 78.0141
90.8313 100 78.099
91.9609 100 78.0378
93.089 100 77.9181
94.3102 100 77.869
95.3586 100 77.9276
96.3989 100 77.7263
97.473 100 77.4712
98.5909 100 77.2493
99.924 100 76.9497
101.341 100 76.6073
102.018 100 73.3675
102.176 100 75.8765
103.519 100 74.7695
105.24 100 74.1192
105.443 100 72.9893
106.56 100 72.6284
107.799 100 72.6039
108.935 100 72.2474
110.303 100 72.2477
111.535 100 72.0005
112.958 100 72.0005
114.189 100 72.2477
115.558 100 72.2474
116.693 100 72.6039
117.933 100 72.6284
119.05 100 72.9893
119.252 100 74.1192
120.973 100 74.7695
122.316 100 75.8765
122.474 100 73.3675
123.152 100 76.6073
124.568 100 76.9497
125.902 100 77.2493
127.019 100 77.4712
128.093 100 77.7263
129.134 100 77.9276
130.182 100 77.869
131.403 100 77.9181
132.532 100 78.0378
133.661 100 78.099
134.781 100 78.0141
135.879 100 77.9681
136.968 100 77.8777
138.024 100 77.7719
139.141 100 77.733
140.257 100 77.6267
141.308 100 77.4642
142.367 100 77.257
144.207 100 77.3603
145.277 100 76.9239
79.4243 100 78.0279
80.4481 100 78.5856
81.3474 100 77.9953
82.5027 100 78.3135
83.5458 100 78.5218
84.688 100 78.706
85.8019 100 78.7555
86.9113 100 78.844
88.0173 100 78.8865
89.1211 100 78.9407
90.2563 100 79.0612
91.4674 100 79.1084
92.5701 100 78.9117
93.6802 100 78.852
94.7488 100 78.829
95.8641 100 78.8599
97.0326 100 78.6071
98.2007 100 78.2463
99.7872 100 77.907
100.847 100 77.6038
102.378 100 76.9035
103.234 100 76.0989
104.306 100 76.4185
105.81 100 76.5955
106.746 100 75.8294
108.199 100 76.5872
109.658 100 76.2957
109.963 100 75.2137
110.651 100 74.0708
111.626 100 73.1125
112.866 100 73.1125
113.842 100 74.0708
114.53 100 75.2137
114.835 100 76.2957
116.293 100 76.5872
117.746 100 75.8294
118.682 100 76.5955
120.187 100 76.4185
121.259 100 76.0989
122.114 100 76.9035
123.645 100 77.6038
124.705 100 77.907
126.292 100 78.2463
127.46 100 78.6071
128.628 100 78.8599
129.744 100 78.829
130.812 100 78.852
131.922 100 78.9117
133.025 100 79.1084
134.236 100 79.0612
135.371 100 78.9407
136.475 100 78.8865
137.581 100 78.844
138.691 100 78.7555
139.804 100 78.706
140.947 100 78.5218
141.99 100 78.3135
143.145 100 77.9953
144.044 100 78.5856
145.068 100 78.0279
79.4952 100 79.1738
80.7816 100 79.62
81.6869 100 79.0418
82.8071 100 79.3951
83.9336 100 79.5825
85.0526 100 79.7414
86.1299 100 79.8286
87.2768 100 79.8174
88.4064 100 79.8686
89.4672 100 79.9492
90.5336 100 80.0699
91.5545 100 80.1467
92.5339 100 80.0743
93.531 100 79.916
94.5925 100 79.9016
95.6402 100 79.8691
96.6814 100 79.563
97.7987 100 79.285
98.8344 100 79.0938
99.8618 100 79.0483
100.924 100 78.8484
102.482 100 78.0744
103.441 100 77.1741
104.368 100 77.5242
105.524 100 77.6259
106.663 100 77.2088
108.07 100 77.6591
109.455 100 77.8428
110.709 100 76.3297
110.955 100 75.1093
113.537 100 75.1093
113.783 100 76.3297
115.037 100 77.8428
116.423 100 77.6591
117.829 100 77.2088
118.968 100 77.6259
120.125 100 77.5242
121.052 100 77.1741
122.01 100 78.0744
123.569 100 78.8484
124.631 100 79.0483
125.658 100 79.0938
126.694 100 79.285
127.811 100 79.563
128.852 100 79.8691
129.9 100 79.9016
130.961 100 79.916
131.958 100 80.0743
132.938 100 80.1467
133.959 100 80.0699
135.025 100 79.9492
136.086 100 79.8686
137.216 100 79.8174
138.362 100 79.8286
139.44 100 79.7414
140.559 100 79.5825
141.685 100 79.3951
142.806 100 79.0418
143.711 100 79.62
144.997 100 79.1738
79.8374 100 80.2245
80.8679 100 80.6903
81.9833 100 80.122
83.0808 100 80.5833
84.4662 100 80.6495
85.6174 100 80.7907
86.7238 100 80.8327
87.7521 100 80.8534
88.7833 100 80.9604
89.8401 100 80.9774
90.9278 100 81.1202
92.0039 100 81.1166
93.0661 100 81.0128
94.1029 100 80.8988
95.1306 100 80.9472
96.1562 100 80.7674
97.1105 100 80.505
98.1796 100 80.1917
99.2998 100 79.9836
100.456 100 79.9441
101.965 100 79.147
103.07 100 79.0511
104.005 100 78.4725
104.99 100 78.8757
106.268 100 78.4631
107.214 100 78.2103
108.54 100 78.5665
109.937 100 78.8837
110.624 100 77.6764
111.759 100 76.5292
112.733 100 76.5292
113.868 100 77.6764
114.555 100 78.8837
115.952 100 78.5665
117.278 100 78.2103
118.224 100 78.4631
119.502 100 78.8757
120.488 100 78.4725
121.422 100 79.0511
122.527 100 79.147
124.036 100 79.9441
125.193 100 79.9836
126.313 100 80.1917
127.382 100 80.505
128.336 100 80.7674
129.362 100 80.9472
130.39 100 80.8988
131.426 100 81.0128
132.489 100 81.1166
133.565 100 81.1202
134.652 100 80.9774
135.709 100 80.9604
136.74 100 80.8534
137.769 100 80.8327
138.875 100 80.7907
140.026 100 80.6495
141.412 100 80.5833
142.509 100 80.122
143.625 100 80.6903
144.655 100 80.2245
79.932 100 81.3153
80.9252 100 81.8678
81.8167 100 81.2184
82.7755 100 81.7761
83.8132 100 81.4666
84.8508 100 81.783
85.948 100 82.057
87.0267 100 81.9043
88.197 100 81.8659
89.3531 100 81.9663
90.5055 100 82.087
91.5882 100 82.0904
92.6363 100 82.0116
93.6883 100 81.9925
94.6766 100 81.9422
95.6924 100 81.936
96.7183 100 81.7246
97.7677 100 81.3745
98.8445 100 80.9393
99.9464 100 80.8688
101.506 100 80.0042
102.576 100 80.0693
103.574 100 79.929
104.686 100 79.8574
105.92 100 79.5941
106.913 100 79.3196
107.87 100 79.555
108.925 100 79.6241
110.805 100 79.4244
111.674 100 78.738
112.818 100 78.738
113.688 100 79.4244
115.567 100 79.6241
116.622 100 79.555
117.579 100 79.3196
118.572 100 79.5941
119.806 100 79.8574
120.918 100 79.929
121.916 100 80.0693
122.986 100 80.0042
124.546 100 80.8688
125.648 100 80.9393
126.725 100 81.3745
127.774 100 81.7246
128.8 100 81.936
129.816 100 81.9422
130.804 100 81.9925
131.856 100 82.0116
132.904 100 82.0904
133.987 100 82.087
135.139 100 81.9663
136.295 100 81.8659
137.466 100 81.9043
138.544 100 82.057
139.642 100 81.783
140.679 100 81.4666
141.717 100 81.7761
142.676 100 81.2184
143.567 100 81.8678
144.56 100 81.3153
79.9854 100 82.465
80.9857 100 83.0238
81.8871 100 82.4042
82.9919 100 82.993
84.1012 100 82.6519
85.3888 100 83.0287
86.5225 100 82.9893
87.6865 100 83.0454
88.8127 100 82.9641
89.9467 100 83.0165
91.0674 100 83.0446
92.1571 100 83.0204
93.2198 100 83.0119
94.2086 100 83.0169
95.3123 100 82.9442
96.4125 100 82.6829
97.5275 100 82.406
98.5095 100 82.1433
99.523 100 81.7494
101.041 100 81.0305
102.111 100 80.9706
103.241 100 80.9285
104.359 100 80.8257
105.396 100 80.652
106.472 100 80.4282
107.621 100 80.5852
108.916 100 80.7585
109.812 100 80.1
110.712 100 80.6775
111.741 100 80.123
112.751 100 80.123
113.78 100 80.6775
114.68 100 80.1
115.576 100 80.7585
116.872 100 80.5852
118.02 100 80.4282
119.097 100 80.652
120.133 100 80.8257
121.251 100 80.9285
122.381 100 80.9706
123.452 100 81.0305
124.969 100 81.7494
125.983 100 82.1433
126.965 100 82.406
128.08 100 82.6829
129.18 100 82.9442
130.284 100 83.0169
131.273 100 83.0119
132.335 100 83.0204
133.425 100 83.0446
134.546 100 83.0165
135.68 100 82.9641
136.806 100 83.0454
137.97 100 82.9893
139.104 100 83.0287
140.391 100 82.6519
141.501 100 82.993
142.605 100 82.4042
143.507 100 83.0238
144.507 100 82.465
80.0089 100 83.5694
80.9921 100 84.1263
82.0054 100 83.5125
82.9205 100 84.1394
83.9401 100 83.7764
84.9434 100 84.1101
86.0047 100 83.9291
87.0404 100 83.9735
88.1635 100 84.0088
89.2564 100 84.0483
90.3218 100 84.0746
91.5357 100 84.0338
92.6606 100 84.0109
93.7461 100 83.9853
94.8057 100 83.9296
95.9006 100 84.1286
97.2653 100 83.3855
98.3544 100 83.1331
99.4976 100 82.7284
100.455 100 82.1902
101.492 100 81.9823
102.552 100 81.9331
103.608 100 81.8169
104.812 100 81.7065
106.106 100 81.6161
107.088 100 81.5009
108.249 100 81.5341
109.445 100 81.6579
110.754 100 81.8979
111.734 100 81.1147
112.758 100 81.1147
113.738 100 81.8979
115.047 100 81.6579
116.243 100 81.5341
117.404 100 81.5009
118.386 100 81.6161
119.68 100 81.7065
120.884 100 81.8169
121.941 100 81.9331
123.001 100 81.9823
124.038 100 82.1902
124.995 100 82.7284
126.138 100 83.1331
127.227 100 83.3855
128.592 100 84.1286
129.687 100 83.9296
130.746 100 83.9853
131.832 100 84.0109
132.957 100 84.0338
134.171 100 84.0746
135.236 100 84.0483
136.329 100 84.0088
137.452 100 83.9735
138.488 100 83.9291
139.549 100 84.1101
140.552 100 83.7764
141.572 100 84.1394
142.487 100 83.5125
143.5 100 84.1263
144.484 100 83.5694
80.0238 100 84.711
80.977 100 85.228
81.9766 100 84.7283
82.9958 100 85.2099
84.0793 100 84.8346
85.0672 100 85.237
86.2193 100 85.0825
87.3197 100 85.0175
88.41 100 85.1143
89.6078 100 85.0237
90.7708 100 85.0301
91.9083 100 85.0089
92.9643 100 85.0105
93.9599 100 84.9796
95.0239 100 84.946
95.9829 100 85.0892
96.926 100 84.5145
97.9138 100 84.0749
99.712 100 83.753
100.597 100 83.2481
102.18 100 82.8164
103.106 100 82.7463
[...]
POINT_DATA 1600
SCALARS mass double
LOOKUP_TABLE default
1
1
1
1
1
1
1
1
1
1
1
1
1
1
1
1
1
1
1
1
1
1
1
1
1
1
1
1
1
1
1
1
1
1
1
1
1
1
1
1
1
1
1
1
1
1
1
1
1
1
1
1
1
1
1
1
1
1
1
1
1
1
1
1
1
1
1
1
1
1
1
1
1
1
1
1
1
1
1
1
1
1
1
1
1
1
1
1
1
1
1
1
1
1
1
1
1
1
1
1
1
1
1
1
1
1
1
1
1
1
1
1
1
1
1
1
1
1
1
1
1
1
1
1
1
1
1
1
1
1
1
1
1
1
1
1
1
1
1
1
1
1
1
1
1
1
1
1
1
1
1
1
1
1
1
1
1
1
1
1
1
1
1
1
1
1
1
1
1
1
1
1
1
1
1
1
1
1
1
1
1
1
1
1
1
1
1
1
1
1
1
1
1
1
1
1
1
1
1
1
1
1
1
1
1
1
1
1
1
1
1
1
1
1
1
1
1
1
1
1
1
1
1
1
1
1
1
1
1
1
1
1
1
1
1
1
1
1
1
1
1
1
1
1
1
1
1
1
1
1
1
1
1
1
1
1
1
1
1
1
1
1
1
1
1
1
1
1
1
1
1
1
1
1
1
1
1
1
1
1
1
1
1
1
1
1
1
1
1
1
1
1
1
1
1
1
1
1
1
1
1
1
1
1
1
1
1
1
1
1
1
1
1
1
1
1
1
1
1
1
1
1
1
1
1
1
1
1
1
1
1
1
1
1
1
1
1
1
1
1
1
1
1
1
1
1
1
1
1
1
1
1
1
1
1
1
1
1
1
1
1
1
1
1
1
1
1
1
1
1
1
1
1
1
1
1
1
1
1
1
1
1
1
1
1
1
1
1
1
1
1
1
1
1
1
1
1
1
1
1
1
1
1
1
1
1
1
1
1
1
1
1
1
1
1
1
1
1
1
1
1
1
1
1
1
1
1
1
1
1
1
1
1
1
1
1
1
1
1
1
1
1
1
1
1
1
1
1
1
1
1
1
1
1
1
1
1
1
1
1
1
1
1
1
1
1
1
1
1
1
1
1
1
1
1
1
1
1
1
1
1
1
1
1
1
1
1
1
1
1
1
1
1
1
1
1
1
1
1
1
1
1
1
1
1
1
1
1
1
1
1
1
1
1
1
1
1
1
1
1
1
1
1
1
1
1
1
1
1
1
1
1
1
1
1
1
1
1
1
1
1
1
1
1
1
1
1
1
1
1
1
1
1
1
1
1
1
1
1
1
1
1
1
1
1
1
1
1
1
1
1
1
1
1
1
1
1
1
1
1
1
1
1
1
1
1
1
1
1
1
1
1
1
1
1
1
1
1
1
1
1
1
1
1
1
1
1
1
1
1
1
1
1
1
1
1
1
1
1
1
1
1
1
1
1
1
1
1
1
1
1
1
1
1
1
1
1
1
1
1
1
1
1
1
1
1
1
1
1
1
1
1
1
1
1
1
1
1
1
1
1
1
1
1
1
1
1
1
1
1
1
1
1
1
1
1
1
1
1
1
1
1
1
1
1
1
1
1
1
1
1
1
1
1
1
1
1
1
1
1
1
1
1
1
1
1
1
1
1
1
1
1
1
1
1
1
1
1
1
1
1
1
1
1
1
1
1
1
1
1
1
1
1
1
1
1
1
1
1
1
1
1
1
1
1
1
1
1
1
1
1
1
1
1
1
1
1
1
1
1
1
1
1
1
1
1
1
1
1
1
1
1
1
1
1
1
1
1
1
1
1
1
1
1
1
1
1
1
1
1
1
1
1
1
1
1
1
1
1
1
1
1
1
1
1
1
1
1
1
1
1
1
1
1
1
1
1
1
1
1
1
1
1
1
1
1
1
1
1
1
1
1
1
1
1
1
1
1
1
1
1
1
1
1
1
1
1
1
1
1
1
1
1
1
1
1
1
1
1
1
1
1
1
1
1
1
1
1
1
1
1
1
1
1
1
1
1
1
1
1
1
1
1
1
1
1
1
1
1
1
1
1
1
1
1
1
1
1
1
1
1
1
1
1
1
1
1
1
1
1
1
1
1
1
1
1
1
1
1
1
1
1
1
1
1
1
1
1
1
1
1
1
1
1
1
1
1
1
1
1
1
1
1
1
1
1
1
1
1
1
1
1
1
1
1
1
1
1
1
1
1
1
1
1
1
1
1
1
1
1
1
1
1
1
1
1
1
1
1
1
1
1
1
1
1
1
1
1
1
1
1
1
1
1
1
1
1
1
1
1
1
1
1
1
1
1
1
1
1
1
1
1
1
1
1
1
1
1
1
1
1
1
1
1
1
1
1
1
1
1
1
1
1
1
1
1
1
1
1
1
1
1
1
1
1
1
1
1
1
1
1
1
1
1
1
1
1
1
1
1
1
1
1
1
1
1
1
1
1
1
1
1
1
1
1
1
1
1
1
1
1
1
1
1
1
1
1
1
1
1
1
1
1
1
1
1
1
1
1
1
1
1
1
1
1
1
1
1
1
1
1
1
1
1
1
1
1
1
1
1
1
1
1
1
1
1
1
1
1
1
1
1
1
1
1
1
1
1
1
1
1
1
1
1
1
1
1
1
1
1
1
1
1
1
1
1
1
1
1
1
1
1
1
1
1
1
1
1
1
1
1
1
1
1
1
1
1
1
1
1
1
1
1
1
1
1
1
1
1
1
1
1
1
1
1
1
1
1
1
1
1
1
1
1
1
1
1
1
1
1
1
1
1
1
1
1
1
1
1
1
1
1
1
1
1
1
1
1
1
1
1
1
1
1
1
1
1
1
1
1
1
1
1
1
1
1
1
1
1
1
1
1
1
1
1
1
1
1
1
1
1
1
1
1
1
1
1
1
1
1
1
1
1
1
1
1
1
1
1
1
1
1
1
1
1
1
1
1
1
1
1
1
1
1
1
1
1
1
1
1
1
1
1
1
1
1
1
1
1
1
1
1
1
1
1
1
1
1
1
1
1
1
1
1
1
1
1
1
1
1
1
1
1
1
1
1
1
1
1
1
1
1
1
1
1
1
1
1
1
1
1
1
1
1
1
1
1
1
1
1
1
1
1
1
1
1
1
1
1
1
1
1
1
1
1
1
1
1
1
1
1
1
1
1
1
1
1
1
1
1
1
1
1
1
1
1
1
1
1
1
1
1
1
1
1
1
1
1
1
1
1
1
1
1
1
1
1
1
1
1
1
1
1
1
1
1
1
1
1
1
1
1
1
1
1
1
1
1
1
1
1
1
1
1
1
1
1
1
1
1
1
1
1
1
1
1
1
1
1
1
1
1
1
1
1
1
1
1
1
1
1
1
1
1
1
1
1
1
1
1
1
1
1
1
1
1
1
1
1
1
1
1
1
1
1
1
1
1
1
1
1
1
1
1
1
1
1
1
1
1
1
1
1
1
1
1
1
1
1
1
1
1
1
1
1
1
1
1
1
1
1
1
1
1
1
1
1
1
1
1
1
1
1
1
1
1
1
1
1
1
1
1
1
1
1
1
1
1
1
1
1
1
1
1
1
1
1
1
1
1
1
1
1
1
1
1
1
1
1
1
1
1
1
1
1
1
1
1
1
1
1
1
1
1
1
1
1
1
1
1
VECTORS force double
-5.29424 0 2.67794
-6.84939 0 -9.37604
39.0505 0 -4.61516
3.55904 0 14.1767
7.54776 0 8.05757
-7.23113 0 9.03361
5.3495 0 14.3752
-57.8684 0 5.64704
28.2691 0 14.6481
38.4412 0 8.86892
-1.35619 0 1.48505
-6.03832 0 2.87231
-0.290066 0 -20.3848
-13.5423 0 -18.5914
-70.5659 0 18.1511
-100.055 0 -285.484
-78.5242 0 30.8458
70.1191 0 3.90819
-13.5432 0 25.4814
17.508 0 8.50956
3.16595 0 2.80071
-1.302 0 -2.44073
-11.722 0 7.99836
11.6509 0 4.53235
-6.68848 0 14.884
-1.16977 0 18.9871
17.9364 0 14.8185
18.8482 0 -14.3232
-36.2467 0 -10.2409
9.32125 0 4.4428
-9.32125 0 4.4428
36.2467 0 -10.2409
-18.8482 0 -14.3232
-17.9364 0 14.8185
1.16977 0 18.9871
6.68848 0 14.884
-11.6509 0 4.53235
11.722 0 7.99836
1.302 0 -2.44073
-3.16595 0 2.80071
-17.508 0 8.50956
13.5432 0 25.4814
-70.1191 0 3.90819
78.5242 0 30.8458
100.055 0 -285.484
70.5659 0 18.1511
13.5423 0 -18.5914
0.290066 0 -20.3848
6.03832 0 2.87231
1.35619 0 1.48505
-38.4412 0 8.86892
-28.2691 0 14.6481
57.8684 0 5.64704
-5.3495 0 14.3752
7.23113 0 9.03361
-7.54776 0 8.05757
-3.55904 0 14.1767
-39.0505 0 -4.61516
6.84939 0 -9.37604
5.29424 0 2.67794
10.8962 0 -2.40597
-8.94282 0 40.2056
2.58075 0 -17.0009
-9.2759 0 -13.8002
25.6475 0 5.1226
-6.69017 0 -5.24058
-33.7792 0 5.81219
15.8742 0 1.12795
-1.16765 0 -19.5712
9.06197 0 4.78353
7.80996 0 -1.42962
-14.7644 0 -9.94994
22.4432 0 21.8002
-53.026 0 -14.6107
2.95861 0 -45.2676
181.349 0 285.622
-15.4311 0 -23.8688
20.6904 0 -36.4051
25.6744 0 -231.186
-28.8744 0 -5.19697
9.62939 0 -7.29378
-21.1051 0 -50.278
-2.33605 0 11.3453
0.30838 0 -5.31391
7.52225 0 -5.26805
2.19171 0 -17.3813
-4.07344 0 -21.0583
-19.0469 0 16.2716
4.27129 0 -13.4594
17.9099 0 18.2689
-17.9099 0 18.2689
-4.27129 0 -13.4594
19.0469 0 16.2716
4.07344 0 -21.0583
-2.19171 0 -17.3813
-7.52225 0 -5.26805
-0.30838 0 -5.31391
2.33605 0 11.3453
21.1051 0 -50.278
-9.62939 0 -7.29378
28.8744 0 -5.19697
-25.6744 0 -231.186
-20.6904 0 -36.4051
15.4311 0 -23.8688
-181.349 0 285.622
-2.95861 0 -45.2676
53.026 0 -14.6107
-22.4432 0 21.8002
14.7644 0 -9.94994
-7.80996 0 -1.42962
-9.06197 0 4.78353
1.16765 0 -19.5712
-15.8742 0 1.12795
33.7792 0 5.81219
6.69017 0 -5.24058
-25.6475 0 5.1226
9.2759 0 -13.8002
-2.58075 0 -17.0009
8.94282 0 40.2056
-10.8962 0 -2.40597
0.262095 0 16.3605
-19.2135 0 -13.842
-3.74298 0 -15.5134
-38.8318 0 -4.5662
34.9161 0 11.8077
-14.616 0 -19.9711
-0.642694 0 2.16985
-27.5749 0 -51.5839
-25.0012 0 -16.6976
-3.7426 0 -3.23302
-15.5935 0 -43.7412
-19.6156 0 -56.8865
16.33 0 39.2151
-7.76115 0 -16.7386
37.2617 0 36.1407
29.1249 0 -54.9654
-15.4367 0 -127.435
-15.8185 0 18.3521
-47.765 0 227.626
7.92918 0 13.2251
24.5461 0 52.7588
9.66975 0 -7.27236
1.62785 0 0.957474
-24.7006 0 -53.1036
-6.64998 0 18.3911
3.2176 0 -16.6636
-43.3711 0 5.15939
-112.906 0 13.4956
-3.39819 0 -15.2557
3.49494 0 4.75393
-3.49494 0 4.75393
3.39819 0 -15.2557
112.906 0 13.4956
43.3711 0 5.15939
-3.2176 0 -16.6636
6.64998 0 18.3911
24.7006 0 -53.1036
-1.62785 0 0.957474
-9.66975 0 -7.27236
-24.5461 0 52.7588
-7.92918 0 13.2251
47.765 0 227.626
15.8185 0 18.3521
15.4367 0 -127.435
-29.1249 0 -54.9654
-37.2617 0 36.1407
7.76115 0 -16.7386
-16.33 0 39.2151
19.6156 0 -56.8865
15.5935 0 -43.7412
3.7426 0 -3.23302
25.0012 0 -16.6976
27.5749 0 -51.5839
0.642694 0 2.16985
14.616 0 -19.9711
-34.9161 0 11.8077
38.8318 0 -4.5662
3.74298 0 -15.5134
19.2135 0 -13.842
-0.262095 0 16.3605
7.98539 0 -8.3553
-12.4093 0 3.33563
11.9904 0 1.17356
7.97551 0 -1.07441
-0.989204 0 9.8276
5.01086 0 -8.51455
39.7748 0 -12.0235
19.8964 0 51.1915
-16.2315 0 38.4409
11.875 0 17.4094
-36.1881 0 37.8463
-100.871 0 48.8511
52.4051 0 -18.1048
57.813 0 11.9372
-11.8164 0 14.5717
-20.5799 0 15.6936
-19.7934 0 41.4473
-53.4776 0 -81.3631
-63.5256 0 -68.2438
44.5628 0 -32.6599
-0.880138 0 -3.7678
4.75882 0 -2.93416
-123.42 0 -27.0277
175.042 0 -22.8817
-9.62419 0 29.0188
30.8622 0 35.7607
35.389 0 -95.7238
-3.37655 0 3.77149
11.6523 0 -13.2384
126.7 0 19.0619
-126.7 0 19.0619
-11.6523 0 -13.2384
3.37655 0 3.77149
-35.389 0 -95.7238
-30.8622 0 35.7607
9.62419 0 29.0188
-175.042 0 -22.8817
123.42 0 -27.0277
-4.75882 0 -2.93416
0.880139 0 -3.7678
-44.5628 0 -32.6599
63.5256 0 -68.2438
53.4777 0 -81.3631
19.7934 0 41.4473
20.5799 0 15.6936
11.8164 0 14.5717
-57.813 0 11.9372
-52.4051 0 -18.1048
100.871 0 48.8511
36.1881 0 37.8463
-11.875 0 17.4094
16.2315 0 38.4409
-19.8964 0 51.1915
-39.7748 0 -12.0235
-5.01087 0 -8.51455
0.989204 0 9.8276
-7.97551 0 -1.07441
-11.9904 0 1.17356
12.4093 0 3.33563
-7.98539 0 -8.3553
5.28086 0 -4.7938
-1.48482 0 18.1509
-16.0181 0 7.47533
-3.06814 0 -4.41125
17.9162 0 -20.8683
-26.6711 0 20.8046
-66.5962 0 -11.8067
6.76272 0 -13.0665
39.0578 0 -21.184
40.7072 0 8.41571
11.7967 0 -30.4318
15.3187 0 -20.0275
-0.215375 0 3.46714
-20.1674 0 8.90275
23.1927 0 -11.0914
-62.7531 0 78.2062
152.73 0 8.78116
-9.1521 0 60.8537
55.2759 0 70.9281
-7.67949 0 -15.2694
105.638 0 -181.993
-51.4797 0 -77.9546
-56.1226 0 67.6262
64.0756 0 -63.1449
-192.833 0 30.1477
103.884 0 9.39968
33.6631 0 73.9709
-79.9946 0 -34.9845
-7.90059 0 0.619783
-173.301 0 4.51744
173.301 0 4.51744
7.90059 0 0.619784
79.9946 0 -34.9845
-33.6631 0 73.9709
-103.884 0 9.39968
192.833 0 30.1477
-64.0756 0 -63.1449
56.1226 0 67.6262
51.4797 0 -77.9546
-105.638 0 -181.993
7.67949 0 -15.2694
-55.2759 0 70.9281
9.15211 0 60.8537
-152.73 0 8.78116
62.7531 0 78.2062
-23.1927 0 -11.0914
20.1674 0 8.90275
0.215374 0 3.46714
-15.3187 0 -20.0275
-11.7967 0 -30.4318
-40.7072 0 8.41571
-39.0578 0 -21.184
-6.76272 0 -13.0665
66.5962 0 -11.8067
26.6711 0 20.8046
-17.9162 0 -20.8683
3.06814 0 -4.41125
16.0181 0 7.47533
1.48482 0 18.1509
-5.28086 0 -4.7938
7.82192 0 17.1759
-11.0148 0 -4.80951
20.0826 0 11.9677
5.56362 0 0.977935
-29.2791 0 34.0904
21.0757 0 -1.80948
-19.4992 0 -22.8947
28.8457 0 9.47539
-8.50715 0 41.5844
-1.81058 0 11.9682
-37.3453 0 6.51536
-41.2339 0 3.2503
5.88945 0 22.9525
-103.671 0 -2.76783
49.2171 0 10.5567
14.4079 0 -64.5106
49.7699 0 -137.969
12.7437 0 -55.9463
24.1623 0 105.753
71.4776 0 -120.306
-80.9003 0 171.985
-41.1291 0 -72.3822
165.384 0 35.1769
-3.58542 0 -34.1385
-148.688 0 -86.5028
-73.5849 0 -27.3095
128.394 0 -6.40416
-50.4388 0 -50.8535
58.2485 0 66.142
4.20335 0 3.75311
-4.20336 0 3.7531
-58.2486 0 66.142
50.4388 0 -50.8535
-128.394 0 -6.40415
73.5849 0 -27.3095
148.688 0 -86.5028
3.58542 0 -34.1385
-165.384 0 35.1769
41.1291 0 -72.3822
80.9003 0 171.985
-71.4776 0 -120.306
-24.1623 0 105.753
-12.7437 0 -55.9463
-49.7699 0 -137.969
-14.4079 0 -64.5106
-49.2171 0 10.5567
103.671 0 -2.76783
-5.88945 0 22.9525
41.2339 0 3.2503
37.3453 0 6.51536
1.81058 0 11.9682
8.50715 0 41.5844
-28.8457 0 9.47539
19.4992 0 -22.8947
-21.0757 0 -1.80948
29.2791 0 34.0904
-5.56362 0 0.977935
-20.0826 0 11.9677
11.0148 0 -4.80951
-7.82192 0 17.1759
4.89976 0 -8.17192
-9.55873 0 -9.92725
12.6506 0 -1.29605
5.74606 0 -8.40361
0.929561 0 -6.84677
-22.397 0 -11.2565
25.0388 0 -23.1235
-17.8418 0 -36.9817
-4.6685 0 5.2491
-22.6076 0 13.0963
-27.1654 0 15.7965
-17.982 0 17.0253
-125.582 0 -7.59809
145.4 0 -43.1087
1.43916 0 13.7714
4.21753 0 141.843
-52.3677 0 -14.1035
113.774 0 -120.869
-96.8174 0 -17.5419
-44.8644 0 -33.9238
-35.4044 0 53.9187
-103.364 0 -165.838
-144.838 0 -44.3383
56.3355 0 25.6763
89.1935 0 109.641
12.5731 0 0.433116
9.88608 0 -103.863
83.6392 0 19.9417
23.254 0 10.6474
-107.694 0 -144.948
107.694 0 -144.948
-23.254 0 10.6474
-83.6392 0 19.9417
-9.88608 0 -103.863
-12.5731 0 0.433114
-89.1935 0 109.641
-56.3355 0 25.6763
144.838 0 -44.3383
103.364 0 -165.838
35.4044 0 53.9187
44.8644 0 -33.9238
96.8174 0 -17.5418
-113.774 0 -120.869
52.3677 0 -14.1035
-4.21753 0 141.843
-1.43916 0 13.7714
-145.4 0 -43.1087
125.582 0 -7.59809
17.982 0 17.0253
27.1654 0 15.7965
22.6076 0 13.0963
4.6685 0 5.2491
17.8418 0 -36.9817
-25.0388 0 -23.1235
22.397 0 -11.2565
-0.929561 0 -6.84677
-5.74606 0 -8.40361
-12.6506 0 -1.29605
9.55873 0 -9.92725
-4.89976 0 -8.17192
3.79031 0 12.0991
12.4024 0 -1.82903
-16.1987 0 16.7769
-3.43819 0 -16.964
-27.7914 0 -53.3006
17.5387 0 9.74367
-39.5658 0 35.9001
50.8708 0 -6.62914
-0.730348 0 19.6589
-38.7346 0 -65.0183
25.0674 0 -34.6536
-24.268 0 -35.6181
-29.9109 0 -37.2516
-46.4732 0 -48.5329
16.8288 0 -32.1987
-32.8514 0 -240.681
-241.209 0 -127.591
31.1757 0 77.5656
-28.5398 0 141.905
30.9341 0 -11.4853
12.0138 0 12.0715
30.9497 0 -345.639
48.6614 0 26.843
16.2766 0 13.4765
-179.837 0 -14.3671
129.558 0 -1.54405
-43.3732 0 65.3513
29.4239 0 46.1004
-107.062 0 -44.4898
-73.7747 0 149.36
73.7747 0 149.36
107.062 0 -44.4898
-29.4239 0 46.1004
43.3732 0 65.3513
-129.558 0 -1.54404
179.837 0 -14.3671
-16.2766 0 13.4765
-48.6614 0 26.843
-30.9497 0 -345.639
-12.0138 0 12.0715
-30.9341 0 -11.4853
28.5398 0 141.905
-31.1757 0 77.5656
241.209 0 -127.591
32.8514 0 -240.681
-16.8288 0 -32.1987
46.4732 0 -48.5329
29.9109 0 -37.2516
24.268 0 -35.6181
-25.0674 0 -34.6536
38.7346 0 -65.0183
0.730348 0 19.6589
-50.8708 0 -6.62914
39.5658 0 35.9001
-17.5387 0 9.74367
27.7914 0 -53.3006
3.43819 0 -16.964
16.1987 0 16.7769
-12.4024 0 -1.82903
-3.79031 0 12.0991
-10.4572 0 -37.2573
58.9747 0 -23.5178
-7.81516 0 -20.8122
30.7115 0 -4.80145
-33.438 0 22.5761
6.63579 0 -49.5565
-15.1043 0 1.5874
5.63336 0 18.4171
22.5051 0 9.77376
21.8638 0 60.3547
17.8214 0 38.6655
-16.6329 0 51.4344
-73.7176 0 54.5552
122.117 0 84.595
-159.408 0 24.5365
228.077 0 197.286
7.92218 0 11.1537
-174.951 0 155.2
-60.9717 0 84.2494
72.603 0 -13.1343
-507.601 0 260.894
486.664 0 125.982
126.025 0 151.179
136.039 0 -23.8641
-148.569 0 7.91205
177.767 0 -12.2137
-70.4329 0 -33.0125
12.0002 0 -19.0109
-4.60565 0 -72.9369
87.5618 0 45.4033
-87.562 0 45.4034
4.60569 0 -72.9369
-12.0002 0 -19.0109
70.4329 0 -33.0125
-177.767 0 -12.2137
148.569 0 7.91205
-136.039 0 -23.864
-126.025 0 151.179
-486.664 0 125.982
507.601 0 260.894
-72.603 0 -13.1343
60.9717 0 84.2494
174.951 0 155.2
-7.92218 0 11.1537
-228.077 0 197.286
159.408 0 24.5365
-122.117 0 84.595
73.7176 0 54.5552
16.6329 0 51.4344
-17.8214 0 38.6655
-21.8638 0 60.3547
-22.5051 0 9.77376
-5.63336 0 18.4171
15.1043 0 1.5874
-6.63579 0 -49.5565
33.438 0 22.5761
-30.7115 0 -4.80145
7.81516 0 -20.8122
-58.9747 0 -23.5178
10.4572 0 -37.2573
-27.6302 0 49.8842
-4.99809 0 -20.8644
-20.5816 0 22.1853
-3.73066 0 0.517647
-24.5377 0 -5.67807
42.8471 0 22.5673
1.2859 0 4.26535
0.400937 0 -3.78167
-5.2814 0 7.08473
-38.7123 0 -1.06157
-123.465 0 -2.03478
145.004 0 2.34729
-15.9399 0 -4.04072
-69.8955 0 1.09644
87.419 0 13.5582
-1.16026 0 50.2637
-18.8742 0 -60.4844
-4.51411 0 -30.5848
339.3 0 90.4344
-45.9776 0 -145.73
-6.90206 0 2.5753
-1.45214 0 26.9642
-65.7115 0 21.4153
20.3237 0 123.065
-36.9914 0 13.9923
-14.8029 0 -92.5431
-114.269 0 -7.11779
171.323 0 2.70814
-134.073 0 91.6421
119.635 0 -28.9087
-119.635 0 -28.9087
134.073 0 91.642
-171.323 0 2.70808
114.269 0 -7.11775
14.8029 0 -92.5431
36.9914 0 13.9922
-20.3237 0 123.065
65.7115 0 21.4153
1.45214 0 26.9642
6.90206 0 2.5753
45.9776 0 -145.73
-339.3 0 90.4344
4.51411 0 -30.5848
18.8742 0 -60.4844
1.16026 0 50.2637
-87.419 0 13.5582
69.8955 0 1.09644
15.9399 0 -4.04072
-145.004 0 2.34729
123.465 0 -2.03478
38.7123 0 -1.06157
5.2814 0 7.08473
-0.400937 0 -3.78167
-1.2859 0 4.26535
-42.8471 0 22.5673
24.5377 0 -5.67807
3.73066 0 0.517647
20.5816 0 22.1853
4.99809 0 -20.8644
27.6302 0 49.8842
-32.0869 0 -63.2324
-3.62659 0 2.01896
-11.8756 0 -66.8034
6.76252 0 -2.77922
-26.6591 0 -14.0196
43.5968 0 -29.3634
-58.8743 0 -27.9634
-234.851 0 -82.1919
264.107 0 60.7535
16.7231 0 -14.5362
-6.29487 0 4.38625
-76.0427 0 -15.0972
58.8693 0 15.5581
31.7704 0 -20.9866
-32.2308 0 -6.30865
-0.289256 0 -96.482
-15.4719 0 52.7074
3.24223 0 26.1001
-112.804 0 -71.1255
2.30929 0 38.0351
-64.1383 0 -90.5363
76.5323 0 -23.9493
-8.97836 0 1.81643
8.59399 0 -14.8024
-11.0425 0 -5.87045
-48.8386 0 102.36
-3.94358 0 -72.1638
-17.7449 0 -7.10455
90.5753 0 -42.2331
-21.7228 0 26.2109
21.7227 0 26.2109
-90.5753 0 -42.2331
17.7449 0 -7.10454
3.94357 0 -72.1638
48.8386 0 102.36
11.0425 0 -5.87045
-8.594 0 -14.8024
8.97837 0 1.81643
-76.5323 0 -23.9493
64.1383 0 -90.5363
-2.30929 0 38.0351
112.804 0 -71.1255
-3.24223 0 26.1001
15.4719 0 52.7074
0.289257 0 -96.482
32.2308 0 -6.30865
-31.7704 0 -20.9866
-58.8693 0 15.5581
76.0427 0 -15.0972
6.29487 0 4.38625
-16.7231 0 -14.5362
-264.107 0 60.7535
234.851 0 -82.1919
58.8743 0 -27.9634
-43.5968 0 -29.3634
26.6591 0 -14.0196
-6.76252 0 -2.77922
11.8756 0 -66.8034
3.62659 0 2.01896
32.0869 0 -63.2324
-42.1166 0 6.29467
21.0141 0 17.0633
-37.186 0 34.2487
15.8965 0 27.6494
-39.3718 0 -3.70136
-23.7593 0 27.6057
-124.821 0 -82.4918
63.1852 0 20.2451
-50.9073 0 -9.80628
45.2891 0 1.64419
32.0061 0 -9.18273
-89.9881 0 -15.2927
65.0391 0 -55.7492
-40.6259 0 -41.3704
6.93235 0 -61.9524
-60.8238 0 -46.8385
-54.3359 0 -101.733
-171.529 0 29.1267
154.418 0 -54.0828
158.437 0 66.9508
11.1904 0 118.555
139.154 0 -8.61754
-63.0972 0 26.4246
64.1696 0 2.26694
-56.5821 0 -53.5881
235.497 0 -446.457
29.5819 0 -4.654
125.73 0 -332.827
101.974 0 -87.2349
-3.61383 0 -87.0158
3.61382 0 -87.0157
-101.974 0 -87.235
-125.73 0 -332.827
-29.5819 0 -4.65399
-235.497 0 -446.457
56.5821 0 -53.5881
-64.1696 0 2.26693
63.0972 0 26.4246
-139.154 0 -8.61754
-11.1904 0 118.555
-158.437 0 66.9508
-154.418 0 -54.0828
171.529 0 29.1267
54.3359 0 -101.733
60.8238 0 -46.8385
-6.93235 0 -61.9524
40.6259 0 -41.3704
-65.0391 0 -55.7492
89.9881 0 -15.2927
-32.0061 0 -9.18273
-45.2891 0 1.64419
50.9073 0 -9.80628
-63.1852 0 20.2451
124.821 0 -82.4918
23.7593 0 27.6057
39.3718 0 -3.70136
-15.8965 0 27.6494
37.186 0 34.2487
-21.0141 0 17.0633
42.1166 0 6.29467
21.0643 0 -8.28672
36.8404 0 50.4106
-9.40917 0 16.8989
101.208 0 36.7922
-13.1777 0 -64.1777
4.91761 0 35.2155
-155.615 0 48.381
98.1055 0 44.8722
69.6813 0 6.70836
-41.7357 0 8.17223
45.0384 0 -24.4303
53.2992 0 -22.1725
35.3181 0 35.5382
-3.77763 0 -42.3272
55.8324 0 115.368
-15.5539 0 12.9409
71.9363 0 52.9108
158.121 0 78.4319
-12.9397 0 77.308
19.9863 0 -70.46
-123.516 0 95.0501
5.22847 0 -26.6976
-130.781 0 -299.278
41.1009 0 -67.0441
-168.884 0 487.937
-32.5727 0 -28.9275
-231.603 0 137.389
-282.326 0 65.2261
110.616 0 -80.0949
-43.4869 0 -87.9028
43.487 0 -87.9027
-110.616 0 -80.0949
282.326 0 65.226
231.603 0 137.389
32.5727 0 -28.9274
168.884 0 487.937
-41.1009 0 -67.0441
130.781 0 -299.278
-5.22847 0 -26.6976
123.516 0 95.0501
-19.9863 0 -70.46
12.9397 0 77.308
-158.121 0 78.4319
-71.9363 0 52.9108
15.5539 0 12.9409
-55.8324 0 115.368
3.77763 0 -42.3272
-35.3181 0 35.5382
-53.2992 0 -22.1725
-45.0384 0 -24.4303
41.7357 0 8.17223
-69.6813 0 6.70836
-98.1055 0 44.8722
155.615 0 48.381
-4.91761 0 35.2155
13.1777 0 -64.1777
-101.208 0 36.7922
9.40917 0 16.8989
-36.8404 0 50.4106
-21.0643 0 -8.28672
21.5616 0 20.7907
-47.0366 0 -3.97867
-34.3534 0 -19.7543
13.9829 0 -10.9565
-89.879 0 86.9414
123.758 0 -50.258
38.0782 0 -59.8215
-68.4111 0 47.1354
8.06942 0 -48.906
-25.4609 0 0.716959
-52.8337 0 5.70395
-8.12928 0 3.21152
-46.647 0 63.4457
68.9379 0 -40.7209
26.4407 0 -24.6245
3.15173 0 18.2185
-28.3646 0 -19.3469
-171.988 0 47.0825
111.075 0 -29.1697
-44.4411 0 -30.9957
-31.4292 0 -29.7238
-14.9588 0 -69.8336
-86.3156 0 -117.207
129.448 0 146.2
-4.65946 0 -53.4269
-87.3232 0 -83.9524
15.1384 0 7.43423
2.6137 0 155.358
135.452 0 262.927
-65.5889 0 85.0546
65.5889 0 85.0544
-135.452 0 262.927
-2.61371 0 155.358
-15.1384 0 7.43421
87.3232 0 -83.9524
4.65944 0 -53.4269
-129.448 0 146.2
86.3156 0 -117.207
14.9588 0 -69.8336
31.4292 0 -29.7238
44.4412 0 -30.9957
-111.075 0 -29.1697
171.988 0 47.0825
28.3646 0 -19.3469
-3.15173 0 18.2185
-26.4407 0 -24.6245
-68.9379 0 -40.7209
46.647 0 63.4457
8.12928 0 3.21152
52.8337 0 5.70395
25.4609 0 0.716959
-8.06942 0 -48.906
68.4111 0 47.1354
-38.0782 0 -59.8215
-123.758 0 -50.258
89.879 0 86.9414
-13.9829 0 -10.9565
34.3534 0 -19.7543
47.0366 0 -3.97867
-21.5616 0 20.7907
21.7626 0 3.57559
-10.2429 0 30.0287
0.760899 0 -12.4084
-1.03794 0 11.119
-34.3838 0 -17.7308
-3.71717 0 25.3452
8.70243 0 68.8952
-25.4112 0 -8.64446
-76.5673 0 38.1409
-0.802913 0 28.7511
-128.8 0 -54.7047
157.694 0 -66.6767
-129.402 0 -23.6003
136.35 0 3.25847
13.1907 0 62.8281
-74.9438 0 -13.7103
51.8971 0 64.6594
-99.0839 0 39.8451
87.4873 0 11.2416
13.0344 0 1.59177
-12.3159 0 20.8344
23.936 0 111.368
45.6395 0 235.606
14.2232 0 45.1661
-58.4389 0 -0.601548
-22.3658 0 -142.76
29.3802 0 11.637
-190.192 0 -261.938
-24.364 0 -7.78289
36.0977 0 -115.584
-36.0977 0 -115.583
24.364 0 -7.78291
190.192 0 -261.938
-29.3802 0 11.637
22.3658 0 -142.76
58.4389 0 -0.601563
-14.2232 0 45.1661
-45.6395 0 235.606
-23.936 0 111.368
12.3159 0 20.8344
-13.0344 0 1.59177
-87.4873 0 11.2416
99.0839 0 39.8451
-51.8971 0 64.6594
74.9438 0 -13.7103
-13.1907 0 62.8281
-136.35 0 3.25847