# vtk DataFile Version 3.0
SiWiRVisFile
ASCII
DATASET UNSTRUCTURED_GRID
POINTS 1600 DOUBLE
77.0678 100 73.0478
77.469 100 74.0569
78.5109 100 74.5792
80.3972 100 74.3773
81.4859 100 74.734
82.4526 100 75.2847
84.3849 100 75.1109
85.5198 100 75.3822
86.5693 100 75.7349
84.9684 100 74.2097
90.9087 100 74.3473
91.6416 100 73.2419
89.476 100 73.8468
89.2439 100 72.8038
89.1318 100 71.4108
92.3457 100 65.4303
92.929 100 66.3209
94.9911 100 64.392
92.5943 100 61.1896
97.0824 100 63.0957
104.229 100 48.5193
104.796 100 51.2473
105.526 100 50.3782
106.494 100 49.9274
105.066 100 49.2874
108.249 100 49.9404
109.852 100 44.9714
111.024 100 44.9241
110.286 100 46.0075
111.605 100 45.8885
112.878 100 45.8877
114.201 100 45.993
113.479 100 44.9313
114.652 100 44.9621
116.243 100 49.9372
119.426 100 49.2879
117.999 100 49.9276
118.966 100 50.3787
119.696 100 51.2477
120.262 100 48.5184
127.424 100 63.0974
131.898 100 61.1896
129.614 100 64.4105
131.521 100 66.3358
132.152 100 65.4351
135.37 100 71.4165
135.261 100 72.8035
135.028 100 73.8697
132.851 100 73.2443
133.583 100 74.3469
139.524 100 74.2092
137.923 100 75.7355
138.973 100 75.3829
140.108 100 75.1109
142.04 100 75.2846
143.006 100 74.7338
144.095 100 74.3775
145.982 100 74.5792
147.023 100 74.057
147.424 100 73.0478
76.5011 100 74.5241
77.4821 100 75.1524
79.5457 100 75.1693
80.5089 100 75.667
81.5294 100 76.0225
83.5797 100 75.7282
84.5408 100 76.226
85.5511 100 76.5066
86.6015 100 76.8878
87.7533 100 76.8244
88.7578 100 77.2209
92.6504 100 72.7771
90.3883 100 72.9902
91.2063 100 71.2478
92.445 100 68.0968
90.1724 100 71.8111
93.842 100 65.3692
96.025 100 63.943
97.0438 100 64.3976
99.1418 100 63.92
104.335 100 50.1591
98.8726 100 55.7855
105.412 100 56.9866
110.203 100 48.6939
106.172 100 48.7489
108.633 100 51.1142
109.363 100 49.3689
109.343 100 48.0782
108.648 100 45.389
111.413 100 46.9048
113.071 100 46.9012
115.835 100 45.3827
115.144 100 48.0785
115.161 100 49.3894
115.857 100 51.1113
118.32 100 48.7484
114.29 100 48.7044
118.925 100 57.0048
125.62 100 55.7855
120.158 100 50.1594
125.372 100 63.9132
127.386 100 64.4359
128.448 100 63.9462
130.628 100 65.3603
134.315 100 71.8008
132.045 100 68.0983
133.28 100 71.2406
134.105 100 72.9811
131.845 100 72.7745
135.737 100 77.2225
136.737 100 76.8214
137.89 100 76.8882
138.941 100 76.5075
139.951 100 76.2257
140.913 100 75.7281
142.963 100 76.0225
143.984 100 75.6669
144.947 100 75.1694
147.01 100 75.1525
147.991 100 74.524
76.4355 100 75.5912
77.4847 100 76.242
78.5568 100 75.7525
79.5564 100 76.2733
80.6358 100 76.84
82.57 100 76.4343
83.6587 100 76.82
84.6463 100 77.3224
85.7345 100 77.6064
86.9209 100 77.9331
88.0601 100 77.9617
89.1549 100 78.2282
90.9672 100 77.2893
91.7789 100 72.205
93.0138 100 69.7804
93.5532 100 68.6308
94.072 100 66.5503
94.8578 100 65.5721
95.9165 100 65.0453
98.1557 100 63.1307
99.0433 100 62.5415
103.503 100 58.8029
105.736 100 58.1211
106.77 100 57.8114
105.366 100 54.4718
107.027 100 56.7121
106.912 100 55.6054
105.924 100 55.9208
110.46 100 47.5884
111.661 100 48.1917
112.846 100 48.1866
114.014 100 47.608
118.549 100 55.7799
117.456 100 55.5762
117.478 100 56.6683
119.177 100 54.583
117.745 100 57.8366
118.804 100 58.1387
120.967 100 58.8275
125.438 100 62.5474
126.342 100 63.1111
128.581 100 64.9671
129.625 100 65.5824
130.407 100 66.5567
130.964 100 68.6052
131.49 100 69.7909
132.718 100 72.2085
133.552 100 77.2741
135.335 100 78.23
136.432 100 77.9622
137.57 100 77.9356
138.759 100 77.6067
139.846 100 77.3225
140.833 100 76.8199
141.922 100 76.4341
143.856 100 76.8399
144.936 100 76.2734
145.936 100 75.7526
147.008 100 76.2421
148.057 100 75.5912
76.4932 100 76.7033
77.5613 100 77.4629
78.4695 100 76.9601
79.5486 100 77.3396
81.647 100 77.1555
82.683 100 77.5323
83.7153 100 77.9356
84.9141 100 78.4583
86.1075 100 78.6564
87.2577 100 79.0376
88.7832 100 79.364
89.7932 100 79.2021
90.384 100 78.1758
92.8988 100 71.6625
92.3448 100 70.6984
94.2525 100 69.9052
94.9105 100 68.77
94.1878 100 67.7569
95.2923 100 66.6657
96.2625 100 66.2238
97.3367 100 65.9782
100.117 100 64.2576
104.376 100 57.9478
105.163 100 60.7511
105.308 100 59.5438
106.46 100 59.2
109.035 100 58.7827
110.202 100 58.6628
108.186 100 56.4783
111.287 100 49.33
113.204 100 49.327
116.325 100 56.4752
114.236 100 58.6344
115.442 100 58.8521
117.983 100 59.2797
119.352 100 59.4877
119.28 100 60.62
120.103 100 58.0664
124.413 100 64.3144
127.156 100 65.9462
128.229 100 66.2143
129.188 100 66.6661
130.29 100 67.7427
129.503 100 68.74
130.282 100 69.891
132.162 100 70.7049
131.592 100 71.6596
134.098 100 78.1767
134.696 100 79.1949
135.704 100 79.3613
137.237 100 79.039
138.386 100 78.6572
139.579 100 78.4575
140.777 100 77.9349
141.809 100 77.5321
142.845 100 77.1553
144.944 100 77.3396
146.023 100 76.9601
146.931 100 77.4629
147.999 100 76.7032
76.5574 100 77.8925
77.5692 100 78.5977
78.5883 100 78.0271
80.7512 100 77.879
81.7539 100 78.3317
82.9599 100 79.0497
84.1108 100 79.2426
85.2254 100 79.5258
86.6284 100 79.9183
87.8705 100 79.977
88.6686 100 80.872
90.9011 100 79.4132
91.8453 100 78.3022
94.5347 100 71.29
93.4754 100 70.8026
96.2498 100 69.9896
96.0134 100 68.8172
95.9166 100 67.6554
97.0919 100 67.0366
98.3368 100 66.5117
98.2234 100 64.8578
102.979 100 64.4537
106.354 100 60.577
107.366 100 59.8399
107.611 100 58.7239
108.633 100 59.7787
109.831 100 59.7209
110.453 100 60.5403
107.844 100 57.5691
111.498 100 51.0501
112.989 100 51.0343
116.641 100 57.5915
113.947 100 60.4074
114.668 100 59.685
115.883 100 60.1158
116.867 100 58.6893
117.062 100 59.8642
118.165 100 60.636
121.58 100 64.4498
126.304 100 64.8786
126.191 100 66.5807
127.449 100 67.0059
128.596 100 67.6539
128.359 100 68.8721
128.359 100 70.0658
131.057 100 70.7745
129.979 100 71.3326
132.677 100 78.3372
133.595 100 79.4081
135.832 100 80.8738
136.622 100 79.9723
137.867 100 79.9209
139.268 100 79.5239
140.381 100 79.2427
141.532 100 79.0494
142.739 100 78.3316
143.741 100 77.8788
145.904 100 78.0272
146.923 100 78.5977
147.935 100 77.8926
76.6214 100 79.1111
77.6307 100 79.7202
78.6683 100 79.1366
79.6518 100 78.5159
80.7968 100 78.9985
81.7578 100 79.4815
82.9322 100 80.2383
84.3375 100 80.3694
85.3998 100 80.7552
86.3866 100 81.0043
87.4867 100 80.9986
89.621 100 80.3402
91.7028 100 80.0745
91.7952 100 76.2402
92.7918 100 75.8411
95.1867 100 70.4247
97.1002 100 70.9091
97.1073 100 69.4372
96.929 100 68.2512
99.2096 100 67.3983
99.094 100 65.7377
101.284 100 65.1809
103.73 100 63.3125
105.03 100 63.3467
105.884 100 61.6312
107.356 100 61.1924
108.334 100 61.7951
109.174 100 60.8443
111.564 100 60.8836
111.507 100 58.976
112.961 100 58.9367
112.939 100 61.0209
114.943 100 60.9524
116.18 100 61.7104
117.142 100 61.1482
119.027 100 61.704
119.412 100 63.4454
120.798 100 63.376
123.19 100 65.1817
125.409 100 65.6744
125.264 100 67.3722
127.434 100 68.3699
127.473 100 69.576
127.34 100 70.7098
129.37 100 70.4592
131.695 100 75.8417
132.695 100 76.247
132.797 100 80.0626
134.875 100 80.3344
137.01 100 80.9944
138.114 100 81.0054
139.101 100 80.7552
140.155 100 80.3699
141.561 100 80.237
142.735 100 79.4814
143.696 100 78.999
144.841 100 78.5161
145.825 100 79.1368
146.862 100 79.7208
147.871 100 79.1106
75.9047 100 80.1561
76.9377 100 80.6408
78.8119 100 80.2319
79.7756 100 79.5476
80.8091 100 80.3593
81.4839 100 81.5242
83.5888 100 81.1017
84.5363 100 81.5299
85.6365 100 81.8426
86.6708 100 81.9911
87.8911 100 82.1163
90.7274 100 80.6641
91.8969 100 81.1539
92.6482 100 76.9641
95.5939 100 72.484
95.7537 100 71.3487
97.5854 100 71.8694
98.479 100 69.7325
98.0574 100 68.7321
99.846 100 66.5377
100.199 100 65.4299
102.354 100 65.6029
104.406 100 64.36
106.886 100 62.129
108.42 100 62.8713
109.513 100 62.1619
110.01 100 64.5323
110.711 100 61.7152
109.255 100 65.3028
110.582 100 66.5054
114.01 100 65.4936
115.292 100 65.1893
114.035 100 61.5387
114.368 100 64.4612
115.059 100 61.9775
116.072 100 62.8334
117.587 100 62.1324
119.965 100 64.3943
122.176 100 65.5148
124.272 100 65.4246
124.615 100 66.4997
126.296 100 68.701
126.124 100 69.7208
127.099 100 71.8549
128.62 100 71.2309
128.91 100 72.5033
131.81 100 76.9607
132.555 100 81.1366
133.768 100 80.6627
136.601 100 82.1073
137.816 100 81.9845
138.857 100 81.8391
139.957 100 81.5279
140.905 100 81.1014
143.011 100 81.5238
143.684 100 80.3592
144.717 100 79.5478
145.681 100 80.232
147.555 100 80.6407
148.588 100 80.1558
76.143 100 81.3955
77.2265 100 81.6551
78.4011 100 81.2279
79.2507 100 81.805
79.9144 100 80.9786
80.2678 100 82.2331
82.6565 100 81.7404
83.5919 100 82.2943
84.8548 100 82.6261
85.9292 100 82.866
87.1186 100 83.0238
88.1834 100 83.1537
89.8531 100 81.49
89.1428 100 82.5276
89.9832 100 83.578
92.9988 100 80.4803
96.8012 100 72.7434
98.2018 100 70.818
99.7369 100 69.6164
99.3781 100 68.4532
100.355 100 67.5133
101.254 100 66.2662
103.731 100 65.173
106.323 100 63.3322
107.386 100 63.1691
109.379 100 63.4437
108.265 100 64.1029
107.329 100 66.7616
108.279 100 66.2049
110.462 100 67.7659
114.283 100 67.6276
115.656 100 66.1696
116.936 100 66.5965
115.785 100 64.1263
115.024 100 63.2257
117.163 100 63.1136
118.358 100 63.3638
120.801 100 65.1454
123.233 100 66.2561
124.133 100 67.5347
125.174 100 68.461
124.784 100 69.5918
126.275 100 70.9223
127.711 100 72.8339
131.511 100 80.475
134.506 100 83.5646
135.355 100 82.5327
134.639 100 81.4846
136.313 100 83.1528
137.367 100 83.0125
138.558 100 82.8494
139.646 100 82.6199
140.903 100 82.2889
141.837 100 81.7394
144.222 100 82.2325
144.578 100 80.9808
145.241 100 81.8059
146.091 100 81.2283
147.266 100 81.6555
148.35 100 81.3954
76.0684 100 82.4431
77.1795 100 82.7709
78.1934 100 82.2542
79.1687 100 82.9969
80.3458 100 83.8846
79.6883 100 84.9354
81.3568 100 82.9298
82.3728 100 83.1254
84.0885 100 83.4697
83.5299 100 84.5862
85.264 100 83.6719
86.3421 100 83.8254
87.6148 100 84.0505
88.9341 100 83.9754
91.0271 100 83.3123
92.3252 100 79.2617
97.2204 100 73.6898
98.0379 100 72.9207
99.6894 100 70.717
100.864 100 70.3883
102.027 100 67.0646
[...]
POINT_DATA 1600
SCALARS mass double
LOOKUP_TABLE default
1
1
1
1
1
1
1
1
1
1
1
1
1
1
1
1
1
1
1
1
1
1
1
1
1
1
1
1
1
1
1
1
1
1
1
1
1
1
1
1
1
1
1
1
1
1
1
1
1
1
1
1
1
1
1
1
1
1
1
1
1
1
1
1
1
1
1
1
1
1
1
1
1
1
1
1
1
1
1
1
1
1
1
1
1
1
1
1
1
1
1
1
1
1
1
1
1
1
1
1
1
1
1
1
1
1
1
1
1
1
1
1
1
1
1
1
1
1
1
1
1
1
1
1
1
1
1
1
1
1
1
1
1
1
1
1
1
1
1
1
1
1
1
1
1
1
1
1
1
1
1
1
1
1
1
1
1
1
1
1
1
1
1
1
1
1
1
1
1
1
1
1
1
1
1
1
1
1
1
1
1
1
1
1
1
1
1
1
1
1
1
1
1
1
1
1
1
1
1
1
1
1
1
1
1
1
1
1
1
1
1
1
1
1
1
1
1
1
1
1
1
1
1
1
1
1
1
1
1
1
1
1
1
1
1
1
1
1
1
1
1
1
1
1
1
1
1
1
1
1
1
1
1
1
1
1
1
1
1
1
1
1
1
1
1
1
1
1
1
1
1
1
1
1
1
1
1
1
1
1
1
1
1
1
1
1
1
1
1
1
1
1
1
1
1
1
1
1
1
1
1
1
1
1
1
1
1
1
1
1
1
1
1
1
1
1
1
1
1
1
1
1
1
1
1
1
1
1
1
1
1
1
1
1
1
1
1
1
1
1
1
1
1
1
1
1
1
1
1
1
1
1
1
1
1
1
1
1
1
1
1
1
1
1
1
1
1
1
1
1
1
1
1
1
1
1
1
1
1
1
1
1
1
1
1
1
1
1
1
1
1
1
1
1
1
1
1
1
1
1
1
1
1
1
1
1
1
1
1
1
1
1
1
1
1
1
1
1
1
1
1
1
1
1
1
1
1
1
1
1
1
1
1
1
1
1
1
1
1
1
1
1
1
1
1
1
1
1
1
1
1
1
1
1
1
1
1
1
1
1
1
1
1
1
1
1
1
1
1
1
1
1
1
1
1
1
1
1
1
1
1
1
1
1
1
1
1
1
1
1
1
1
1
1
1
1
1
1
1
1
1
1
1
1
1
1
1
1
1
1
1
1
1
1
1
1
1
1
1
1
1
1
1
1
1
1
1
1
1
1
1
1
1
1
1
1
1
1
1
1
1
1
1
1
1
1
1
1
1
1
1
1
1
1
1
1
1
1
1
1
1
1
1
1
1
1
1
1
1
1
1
1
1
1
1
1
1
1
1
1
1
1
1
1
1
1
1
1
1
1
1
1
1
1
1
1
1
1
1
1
1
1
1
1
1
1
1
1
1
1
1
1
1
1
1
1
1
1
1
1
1
1
1
1
1
1
1
1
1
1
1
1
1
1
1
1
1
1
1
1
1
1
1
1
1
1
1
1
1
1
1
1
1
1
1
1
1
1
1
1
1
1
1
1
1
1
1
1
1
1
1
1
1
1
1
1
1
1
1
1
1
1
1
1
1
1
1
1
1
1
1
1
1
1
1
1
1
1
1
1
1
1
1
1
1
1
1
1
1
1
1
1
1
1
1
1
1
1
1
1
1
1
1
1
1
1
1
1
1
1
1
1
1
1
1
1
1
1
1
1
1
1
1
1
1
1
1
1
1
1
1
1
1
1
1
1
1
1
1
1
1
1
1
1
1
1
1
1
1
1
1
1
1
1
1
1
1
1
1
1
1
1
1
1
1
1
1
1
1
1
1
1
1
1
1
1
1
1
1
1
1
1
1
1
1
1
1
1
1
1
1
1
1
1
1
1
1
1
1
1
1
1
1
1
1
1
1
1
1
1
1
1
1
1
1
1
1
1
1
1
1
1
1
1
1
1
1
1
1
1
1
1
1
1
1
1
1
1
1
1
1
1
1
1
1
1
1
1
1
1
1
1
1
1
1
1
1
1
1
1
1
1
1
1
1
1
1
1
1
1
1
1
1
1
1
1
1
1
1
1
1
1
1
1
1
1
1
1
1
1
1
1
1
1
1
1
1
1
1
1
1
1
1
1
1
1
1
1
1
1
1
1
1
1
1
1
1
1
1
1
1
1
1
1
1
1
1
1
1
1
1
1
1
1
1
1
1
1
1
1
1
1
1
1
1
1
1
1
1
1
1
1
1
1
1
1
1
1
1
1
1
1
1
1
1
1
1
1
1
1
1
1
1
1
1
1
1
1
1
1
1
1
1
1
1
1
1
1
1
1
1
1
1
1
1
1
1
1
1
1
1
1
1
1
1
1
1
1
1
1
1
1
1
1
1
1
1
1
1
1
1
1
1
1
1
1
1
1
1
1
1
1
1
1
1
1
1
1
1
1
1
1
1
1
1
1
1
1
1
1
1
1
1
1
1
1
1
1
1
1
1
1
1
1
1
1
1
1
1
1
1
1
1
1
1
1
1
1
1
1
1
1
1
1
1
1
1
1
1
1
1
1
1
1
1
1
1
1
1
1
1
1
1
1
1
1
1
1
1
1
1
1
1
1
1
1
1
1
1
1
1
1
1
1
1
1
1
1
1
1
1
1
1
1
1
1
1
1
1
1
1
1
1
1
1
1
1
1
1
1
1
1
1
1
1
1
1
1
1
1
1
1
1
1
1
1
1
1
1
1
1
1
1
1
1
1
1
1
1
1
1
1
1
1
1
1
1
1
1
1
1
1
1
1
1
1
1
1
1
1
1
1
1
1
1
1
1
1
1
1
1
1
1
1
1
1
1
1
1
1
1
1
1
1
1
1
1
1
1
1
1
1
1
1
1
1
1
1
1
1
1
1
1
1
1
1
1
1
1
1
1
1
1
1
1
1
1
1
1
1
1
1
1
1
1
1
1
1
1
1
1
1
1
1
1
1
1
1
1
1
1
1
1
1
1
1
1
1
1
1
1
1
1
1
1
1
1
1
1
1
1
1
1
1
1
1
1
1
1
1
1
1
1
1
1
1
1
1
1
1
1
1
1
1
1
1
1
1
1
1
1
1
1
1
1
1
1
1
1
1
1
1
1
1
1
1
1
1
1
1
1
1
1
1
1
1
1
1
1
1
1
1
1
1
1
1
1
1
1
1
1
1
1
1
1
1
1
1
1
1
1
1
1
1
1
1
1
1
1
1
1
1
1
1
1
1
1
1
1
1
1
1
1
1
1
1
1
1
1
1
1
1
1
1
1
1
1
1
1
1
1
1
1
1
1
1
1
1
1
1
1
1
1
1
1
1
1
1
1
1
1
1
1
1
1
1
1
1
1
1
1
1
1
1
1
1
1
1
1
1
1
1
1
1
1
1
1
1
1
1
1
1
1
1
1
1
1
1
1
1
1
1
1
1
1
1
1
1
1
1
1
1
1
1
1
1
1
1
1
1
1
1
1
1
1
1
1
1
1
1
1
1
1
1
1
1
1
1
1
1
1
1
1
1
1
1
1
1
1
1
1
1
1
1
1
1
1
1
1
1
1
1
1
1
1
1
1
1
1
1
1
1
1
1
1
1
1
1
1
1
1
1
1
1
1
1
1
1
1
1
1
1
1
1
1
1
1
1
1
1
VECTORS force double
-6.41683 0 -8.73603
32.0454 0 0.729384
-6.28281 0 17.0864
-0.71984 0 20.5116
-14.9604 0 16.7911
6.67346 0 21.096
67.4971 0 -29.819
-26.9548 0 -3.14245
-3.28787 0 18.8635
16.6649 0 -6.6173
-1.21013 0 -16.9939
-27.5214 0 51.9597
20.014 0 18.1099
8.15088 0 -39.2363
-0.224286 0 8.40682
-9.38628 0 -24.0359
32.8546 0 20.6102
-0.962114 0 15.8016
0 0 0
-28.8425 0 17.4096
3.91084 0 5.99521
-1.26803 0 -12.8664
-40.7818 0 -0.080107
18.3084 0 -23.9068
13.7721 0 7.52797
12.506 0 5.10573
-0.910174 0 4.36918
-13.9533 0 11.4579
20.4723 0 -2.13982
12.753 0 -57.5229
-13.1491 0 -61.8487
-20.2295 0 -3.59337
13.8768 0 12.6263
1.02352 0 4.84104
-12.1919 0 5.35526
-13.656 0 7.45236
-18.2426 0 -23.9069
40.7456 0 -0.0523069
1.24524 0 -12.8979
-3.99691 0 6.06695
23.4239 0 17.4947
0 0 0
-13.3393 0 15.8481
-16.6743 0 2.07921
-1.21058 0 -6.45655
-1.84807 0 9.39555
-12.0196 0 -25.2306
-16.4782 0 4.54297
27.7001 0 53.8146
1.029 0 -16.7491
-16.4703 0 -6.3709
3.23146 0 18.8599
27.0149 0 -3.09966
-67.8899 0 -30.2707
-6.73727 0 21.131
15.0036 0 16.7506
0.742474 0 20.5135
6.2797 0 17.0878
-32.0456 0 0.737529
6.41301 0 -8.72772
-7.83355 0 -14.0797
9.38209 0 -2.99105
-22.1056 0 -19.3442
2.98225 0 -3.47429
14.5336 0 1.15679
-106.783 0 41.3971
6.00807 0 -33.9346
38.4351 0 9.4532
2.95294 0 -14.3711
-29.7003 0 8.67898
69.4577 0 -68.4659
45.484 0 19.7483
-0.429253 0 1.1698
3.41969 0 0.18933
14.0629 0 4.86484
9.65242 0 15.7774
-62.2108 0 4.86263
5.21648 0 -9.96501
5.61877 0 2.36346
-77.7249 0 -26.3083
18.154 0 4.7652
0 0 0
8.69583 0 7.06447
59.1625 0 9.03112
-9.49302 0 18.8216
-3.40189 0 -12.6892
-25.0535 0 6.93781
-16.5866 0 -13.329
13.3846 0 -3.10802
-17.3465 0 69.9865
18.1765 0 74.3924
-13.6287 0 -3.2521
15.5689 0 -13.2572
13.002 0 -1.98808
3.3699 0 -12.8552
9.49342 0 18.8337
-46.4375 0 18.8713
-13.4837 0 -1.76626
0 0 0
-18.1878 0 4.75635
65.5381 0 -26.6896
7.48026 0 -1.98759
-13.7338 0 -63.1877
70.2126 0 -0.529038
-7.94462 0 14.554
-12.9698 0 4.24773
-4.29914 0 1.19356
1.20824 0 0.743496
-48.5095 0 20.8289
-73.1005 0 -69.7748
30.628 0 8.35614
-2.90475 0 -13.3692
-38.5776 0 9.29487
-5.88645 0 -33.913
106.807 0 41.6903
-14.6458 0 1.14828
-3.12627 0 -3.44479
22.2161 0 -19.4494
-9.37313 0 -3.01801
7.83475 0 -14.06
13.5769 0 27.2848
19.7803 0 16.3474
-14.0001 0 -0.354777
1.38951 0 -10.9907
-49.1807 0 -73.7003
8.84149 0 -10.8327
-43.1864 0 26.4536
17.9596 0 8.52362
3.14172 0 8.65152
12.9048 0 -1.48846
-69.7111 0 65.2714
17.2089 0 32.196
32.2257 0 -25.9031
-28.8127 0 -78.9662
15.269 0 -7.34808
-13.4771 0 27.386
10.3471 0 -8.91049
67.3857 0 16.8481
2.7296 0 17.4316
5.98747 0 28.6776
23.8477 0 -5.68051
9.71132 0 -7.92775
-23.3125 0 9.18553
14.9116 0 7.75457
2.67601 0 5.12966
4.89895 0 6.62658
56.4737 0 -16.858
-51.7848 0 28.6532
5.21336 0 3.95639
-7.11818 0 -3.76925
8.0704 0 -4.31554
-6.72372 0 3.34645
4.32676 0 9.37551
-8.02372 0 -6.77562
-0.936077 0 26.8019
-5.39329 0 9.37184
-13.5204 0 -3.20757
14.8016 0 9.50441
-7.39502 0 -3.31952
-24.329 0 -4.77087
-0.103864 0 27.5893
12.1248 0 77.0093
-78.1624 0 19.8848
-15.2369 0 -9.35031
10.8504 0 20.5729
-5.81096 0 -26.8454
32.3774 0 -83.3687
-32.8332 0 -31.7331
-16.0681 0 30.0782
71.2241 0 67.796
-12.0226 0 -2.48643
-3.70442 0 8.88681
-17.8092 0 8.26127
43.355 0 26.1523
-8.85589 0 -10.879
49.2749 0 -73.7747
-1.36372 0 -10.8961
14.0246 0 -0.353443
-19.7882 0 16.3448
-13.5773 0 27.2705
2.31645 0 23.147
-37.8062 0 12.1074
50.9822 0 -70.825
7.11508 0 40.4353
27.3986 0 10.9623
3.3542 0 11.4078
9.39435 0 23.9824
5.21863 0 -21.5848
-14.8257 0 28.3815
6.75598 0 -31.0657
-64.0623 0 6.4993
77.1655 0 -18.8351
-25.5471 0 46.101
-42.4054 0 59.2327
-7.37643 0 3.72499
-36.2564 0 -13.2884
-22.0602 0 -2.22885
19.9821 0 -19.9412
-37.1074 0 10.4053
15.3346 0 -12.6765
15.7249 0 -25.0369
63.066 0 35.4913
7.8112 0 5.41567
16.5127 0 -10.5831
15.1958 0 5.56744
-8.30128 0 -11.1972
14.926 0 -13.1916
-0.119414 0 5.22835
-16.405 0 5.0916
-6.2111 0 -16.0554
6.34566 0 -15.9023
17.4 0 5.31423
2.3867 0 10.0822
-1.52349 0 9.2658
13.7517 0 -13.6641
-10.5454 0 -6.32552
1.18412 0 -6.94032
-11.7151 0 5.5233
-50.0381 0 25.1977
-17.3848 0 -18.9439
-12.7519 0 -23.208
42.1842 0 12.0617
-16.3874 0 -13.3977
4.89685 0 -4.57585
32.2797 0 -12.1559
15.8963 0 3.52111
40.4087 0 61.9385
26.4578 0 51.9622
-77.9482 0 -18.4947
67.1149 0 8.29797
-5.64774 0 -31.1587
14.8801 0 28.0502
-5.15922 0 -21.8826
-9.46733 0 24.2069
-3.32937 0 11.4378
-27.4086 0 11.0249
-7.15479 0 40.4048
-51.1095 0 -70.8179
37.9175 0 12.2036
-2.31055 0 23.1551
1.50828 0 11.8142
27.0907 0 -18.4454
2.90595 0 17.4834
-16.6679 0 40.3845
14.8143 0 -0.803059
-3.75281 0 -1.1448
-6.75609 0 0.424246
3.78258 0 15.357
-6.60236 0 10.9404
-6.17809 0 1.46602
-21.7309 0 5.26576
-40.3694 0 -35.4713
-20.8099 0 -24.8683
-7.94532 0 5.1525
45.604 0 -53.3445
-70.5433 0 48.5016
-0.273004 0 20.1578
8.79628 0 -1.19654
-11.32 0 22.4749
-9.38978 0 20.6044
1.10013 0 2.74922
-31.1888 0 -33.8345
1.74593 0 -4.84265
6.96125 0 13.7634
-7.4568 0 -4.55522
-8.49387 0 26.4979
-63.2349 0 -51.7737
38.624 0 67.4337
0.421225 0 -1.53345
5.87084 0 -2.58496
-5.85819 0 -2.57533
7.71786 0 -14.1772
-60.9386 0 63.5877
69.6388 0 -46.8895
-8.5211 0 -3.30837
12.9938 0 10.3355
-15.1656 0 15.157
-10.191 0 -4.29718
33.0051 0 -28.8118
-1.90453 0 4.24755
-4.4094 0 -2.72817
0.257064 0 22.0927
-9.91567 0 5.86727
41.8098 0 19.6932
62.9964 0 44.1245
-63.0127 0 -32.9842
19.6449 0 14.5911
22.44 0 -27.1128
45.1279 0 -41.7743
18.3318 0 3.6241
4.6967 0 2.68034
5.92303 0 10.3433
-4.1973 0 15.9345
7.18463 0 0.466801
3.71017 0 -1.19688
-14.8407 0 -0.737217
16.7237 0 40.6049
-2.87748 0 17.4183
-27.0399 0 -18.276
-1.49298 0 11.7985
-13.3698 0 15.61
7.40051 0 1.24709
-4.59045 0 -4.6893
-1.30034 0 -64.5396
-29.9419 0 -6.55596
27.1576 0 10.8187
-6.18234 0 -23.596
35.3811 0 -35.6606
-87.3956 0 -32.4828
53.9425 0 -43.0908
4.41195 0 21.9359
13.9813 0 -13.145
0.397567 0 86.3723
-28.2473 0 16.1764
19.997 0 -5.76718
28.529 0 -19.8563
-30.0396 0 -30.0337
72.3589 0 -56.9552
23.0396 0 -11.2664
-23.0032 0 -15.5188
2.44772 0 -27.7537
4.6624 0 -16.2056
12.883 0 19.8819
0.359889 0 17.5596
4.95774 0 -8.3882
14.4484 0 -49.5961
5.53389 0 -23.1381
5.64869 0 -3.18255
-7.02428 0 4.16339
-5.1936 0 0.635844
6.26677 0 0.852829
11.0807 0 -1.99236
17.3842 0 -89.7707
-8.06157 0 1.27288
-4.06635 0 -32.5838
-13.2101 0 0.716571
31.9181 0 3.0221
-10.0226 0 19.2984
23.8859 0 -33.2756
3.36254 0 1.88064
15.9141 0 -7.72125
-36.5719 0 -17.8797
-96.5186 0 -54.8464
27.9487 0 -4.23437
-5.77397 0 -24.381
-16.9254 0 -6.39152
21.3614 0 17.7297
-3.08516 0 95.5335
-10.9444 0 -11.6879
-2.47801 0 20.949
-55.0983 0 -49.1185
85.5027 0 -33.3534
-33.2554 0 -36.3206
6.07319 0 -23.373
-27.1407 0 10.7872
29.7496 0 -6.78681
1.35675 0 -64.579
4.51649 0 -4.75794
-7.47624 0 0.976618
13.3314 0 15.593
15.8948 0 3.84109
1.46334 0 -51.8258
14.7625 0 -14.511
4.84308 0 64.4271
14.8478 0 -22.6474
-2.92424 0 4.45075
-70.6333 0 32.6301
50.3252 0 21.1743
-54.7001 0 -36.1064
80.0835 0 72.1908
-15.2154 0 -23.7803
0.146604 0 -5.87357
0.981374 0 -2.70949
-2.28052 0 9.32075
11.5459 0 -6.60747
7.67024 0 10.6446
18.563 0 22.7851
13.8919 0 10.7766
-14.5507 0 -15.7644
21.9208 0 -29.5169
-4.79069 0 6.57438
-3.42473 0 -1.87912
27.9708 0 -37.9633
-13.7028 0 52.4211
23.7533 0 16.3311
-13.119 0 -0.426125
5.38379 0 -23.8834
-8.02701 0 -15.4268
-22.809 0 22.3176
-13.86 0 15.8038
9.5515 0 9.63514
-29.8638 0 -54.5366
-26.0769 0 0.391552
22.2219 0 -13.5955
23.6184 0 79.7825
-4.71512 0 0.254376
19.918 0 -6.61862
0.473668 0 10.0179
-29.5618 0 7.60031
5.79224 0 11.8877
-11.8684 0 -14.2815
17.1557 0 -61.2883
-8.73811 0 69.463
-3.05174 0 -9.08112
-16.9609 0 13.5404
-12.8326 0 -11.8276
5.48044 0 7.18418
-1.80938 0 -4.71212
0.0831857 0 -6.82696
13.5142 0 -20.3332
-76.5411 0 73.5631
52.901 0 -40.2647
-49.0495 0 20.4972
70.3108 0 31.807
2.96214 0 4.48396
-14.5135 0 -22.4344
-4.70518 0 64.4992
-14.7586 0 -14.5797
-1.52721 0 -51.2244
-15.8816 0 3.83509
-6.18123 0 -45.0538
21.5934 0 37.6198
-67.7784 0 -64.1629
23.7926 0 73.1252
0.661936 0 -18.57
10.6597 0 2.17485
-21.5683 0 -6.62952
32.1058 0 5.59825
-23.8183 0 -3.03767
40.8298 0 -54.0819
-25.1076 0 -10.5789
46.9824 0 -6.99029
-9.51151 0 -11.3411
-3.64274 0 2.36809
-30.5728 0 3.47365
-25.428 0 3.88267
-17.1288 0 -64.919
7.70794 0 15.5703
-5.93622 0 -13.0956
2.64367 0 35.3778
-3.19484 0 8.97858
-11.7216 0 5.90528
20.2857 0 76.9907
-24.9578 0 7.68075
5.87647 0 12.0653
-2.49306 0 5.77472
5.4689 0 -22.0194
1.39505 0 19.5572
24.8082 0 6.61083
-15.1715 0 -8.73119
-12.3354 0 29.1771
37.5878 0 22.7822
-3.96686 0 4.08402
-11.5281 0 -9.0288
2.55715 0 2.03712
1.08907 0 33.4184
-22.4155 0 -28.5524
-40.0744 0 45.1225
7.21316 0 16.97
7.73438 0 -2.72847
-2.57025 0 19.8331
5.15706 0 -13.4176
-14.4763 0 4.57753
10.0196 0 -32.984
14.871 0 4.12736
31.1557 0 6.17397
2.8763 0 2.47117
9.65933 0 -11.2428
-48.2468 0 -6.01042
32.9906 0 -8.24403
-39.4783 0 -36.802
20.1393 0 -0.398594
-33.8537 0 6.29997
23.7765 0 -7.57129
-10.4977 0 1.88225
-1.91221 0 -19.6613
-22.7732 0 73.9828
67.4439 0 -63.0197
-21.562 0 37.0568
6.03361 0 -44.8996
4.91145 0 4.59228
3.4504 0 9.39838
-1.37886 0 54.5199
10.0271 0 -19.9393
-3.46375 0 2.2883
-41.4777 0 -75.0452
-71.4379 0 -9.28655
60.5022 0 8.42696
4.79247 0 2.75347
-55.7387 0 -36.2913
-56.6491 0 35.9802
40.9344 0 63.307
-49.4561 0 2.89645
44.8573 0 -77.9561
14.0667 0 6.87516
43.8648 0 -19.3888
35.3046 0 57.9505
-38.1468 0 -0.467375
1.12143 0 4.68549
-86.0966 0 -20.0293
-0.0647852 0 6.09878
-13.6738 0 -5.81393
2.6402 0 -22.7145
-12.5078 0 -11.5222
4.96457 0 17.1361
-6.19696 0 -19.6693
5.22808 0 7.2528
6.30792 0 -16.6227
0.381428 0 -2.80209
-4.61576 0 9.22979
12.7428 0 -21.6924
4.6548 0 52.7838
-23.6672 0 -14.9566
-14.3105 0 12.0165
-17.9064 0 19.4501
4.93178 0 15.0939
10.5404 0 -16.5602
-2.01622 0 -23.956
10.9243 0 -8.52005
6.22976 0 -1.24058
92.3326 0 -46.3113
21.4252 0 18.5526
10.5026 0 2.29988
-33.7849 0 17.6652
-40.7761 0 -14.4819
-14.642 0 7.03183
-53.4881 0 -83.2989
45.9467 0 -0.0674591
-39.9646 0 56.3889
52.9378 0 35.2929
48.9188 0 -34.8729
-5.4682 0 1.78602
-61.2927 0 8.36456
72.1346 0 -9.15624
43.6226 0 -78.5587
2.39784 0 2.66755
-9.4889 0 -19.6156
1.41585 0 53.4131
-3.33646 0 9.40479
-4.80856 0 3.75471
-22.4353 0 12.6206
41.217 0 7.61988
-56.3427 0 -38.6426
34.0183 0 4.44655
42.6491 0 36.205
2.46607 0 -15.956
99.6499 0 28.9766
-8.94143 0 16.4973
-5.74207 0 6.9414
18.4527 0 -13.4343
57.7515 0 25.7339
12.8386 0 7.36043
13.1451 0 -24.2964
-26.0157 0 111.647
7.83004 0 -60.3975
12.3912 0 7.47686
-5.5135 0 12.9522
4.0374 0 -9.14082
10.0674 0 -12.0724
-7.87012 0 9.18226
13.4178 0 -1.58285
74.373 0 22.4879
1.02212 0 -14.1061
8.56653 0 9.85023
-9.22419 0 -7.41661
4.46311 0 -10.3191
6.10677 0 32.5031
1.26759 0 -47.389
22.209 0 -12.2461
-9.36948 0 -11.3368
-1.10389 0 -46.3174
17.7933 0 38.9635
49.0592 0 -41.7356
-8.87025 0 3.99113
-14.9611 0 -13.7003
1.4249 0 -28.7683
-24.0861 0 23.3825
2.57318 0 4.43347
-86.8978 0 38.8787
-36.0835 0 44.8279
-3.83782 0 2.06608
45.1968 0 -26.3078
-1.57857 0 -14.1319
7.33494 0 10.2071
0.670117 0 6.98568
-7.96165 0 -62.0924
32.3158 0 116.715
-15.6204 0 -26.0737
-8.63553 0 2.51343
-53.5605 0 23.5511
-28.5844 0 -18.3872
-9.18112 0 7.12141
18.3637 0 19.079
-101.329 0 33.9115
-2.24328 0 -15.7883
-43.2901 0 36.8123
-33.9927 0 4.56696
56.5946 0 -39.4306
-41.1458 0 7.60739
22.2289 0 13.4908
1.64758 0 1.35026
-3.87395 0 -34.8438
26.1083 0 -19.9763
-14.0392 0 20.982
-28.9538 0 14.3318
-23.0702 0 6.22385
-101.087 0 27.2949
80.3697 0 -26.5533
-1.89338 0 -9.81095
-18.6845 0 25.6395
14.318 0 -35.4765
-22.3041 0 -3.79422
11.6147 0 -9.33238
-17.7733 0 40.3298
-21.1785 0 27.1359
-0.397054 0 -7.42922
-0.871695 0 -9.32428
6.46457 0 -34.7698
-0.449494 0 -6.51
3.09892 0 -7.73344
19.3906 0 10.873
-51.8637 0 16.0404
9.76618 0 -14.1951
1.05315 0 13.6792
5.24236 0 -5.94906
1.16818 0 9.55797
-0.669096 0 14.5054
7.83258 0 6.85823
9.40243 0 -7.0244
-5.52378 0 -0.239777
2.47702 0 -0.603262
10.087 0 -15.147
-44.7897 0 73.4837
95.2264 0 3.47491
-1.89151 0 16.7942
-15.4028 0 0.0364929
1.69739 0 -22.6271
-8.4595 0 6.28559
18.2979 0 1.17361
-3.10362 0 -9.57889
-10.3517 0 -13.5774
-9.32136 0 -2.06528
-20.4541 0 -9.07582
7.00208 0 -14.0835
2.23973 0 -13.6264
18.5869 0 30.4152
9.08971 0 37.8294
-9.72205 0 -10.6676
25.5941 0 1.82121
-26.7944 0 -41.5615
33.0527 0 30.7105
-14.877 0 -12.5203
-69.1685 0 -23.9102
88.3162 0 26.5492
21.5524 0 5.85669
29.3326 0 14.3347
13.8792 0 20.9973
-25.7727 0 -19.8023
3.72832 0 -34.7294
-1.62092 0 1.48267
-2.50529 0 28.3611
20.7069 0 28.1441
1.38902 0 -3.39199
-31.4574 0 29.9623
16.2545 0 -27.242
-0.0618526 0 -2.1386
-3.39102 0 -8.8958
-11.3069 0 22.9952
-6.55302 0 -40.5604
-3.24117 0 14.42
1.93267 0 -32.4396
2.15565 0 22.7099
11.9358 0 -0.843704
2.68551 0 19.8202
-35.7288 0 22.4875
38.3237 0 -8.45916
11.8057 0 -7.57176
2.21629 0 -16.9329
13.2014 0 -8.97622
-21.0304 0 -52.2461
1.13675 0 -7.29638
6.9392 0 7.02503
-11.4158 0 -47.9404
24.122 0 47.8682
-12.4989 0 -44.596
7.64338 0 -10.9808
-6.98014 0 6.47922
-8.72937 0 36.7692
-6.03223 0 -28.1071
1.05293 0 1.91882
-31.4096 0 7.77072
-61.5949 0 -39.6319
-35.8287 0 9.93012
8.85287 0 1.06434
11.4811 0 -10.2511
72.5745 0 -78.3505
-65.0503 0 93.2571
-6.43891 0 -100.864
43.6911 0 57.3842
3.98295 0 -4.50724
18.8296 0 -2.47158
-16.5351 0 -12.3797
-7.20125 0 -8.37025
-6.73867 0 -6.24207
-51.4381 0 -4.25411
49.2203 0 16.5995
-10.2327 0 22.6613
-14.1488 0 -1.28293
0.0412741 0 20.7938
2.47071 0 -2.61318
17.5732 0 22.428
6.05791 0 -37.7913
19.1966 0 22.823
6.01011 0 -6.95918
-0.291615 0 -2.5127
-16.2793 0 -27.3482
31.5376 0 29.9617
-0.959109 0 -3.72242
-20.8572 0 27.862
2.6643 0 28.5551
-9.16897 0 -13.8047
-4.17886 0 -12.6617
-33.1362 0 -31.4963
-9.41944 0 14.7932
-9.54308 0 -18.3302
-29.9971 0 -91.9627
-18.2595 0 49.6049
-15.0076 0 -3.40254
63.664 0 48.5744
-4.63808 0 17.0356
37.3341 0 -2.97846
11.7268 0 -14.3195
-10.0061 0 4.31638
-13.2969 0 5.65937
6.04568 0 -38.5908
-4.51856 0 -18.5098
3.92798 0 2.12727
2.19194 0 13.8357
26.2814 0 31.8864
-4.48877 0 -12.5709
0.137993 0 -14.2648
17.4861 0 27.867
19.1735 0 14.3116
-0.222693 0 7.10438
-16.5432 0 -0.810849
1.73501 0 -3.95407
-7.44508 0 4.21041
4.21622 0 -20.3207
-41.5419 0 4.64762
1.1741 0 -7.02154
33.5455 0 -18.4336
7.79818 0 -11.1074
8.06737 0 -3.00963
0.341899 0 12.9935
3.14633 0 -49.2147
-0.745404 0 17.7249
-28.1082 0 -3.12994
3.44598 0 -18.644
-6.65997 0 -1.75933
-9.30804 0 5.90738
10.0443 0 -11.4135
-13.335 0 8.24307
-1.18707 0 10.7972
5.99402 0 -2.53539
3.66848 0 -18.5607
-4.56423 0 -39.2352
20.8159 0 7.43167
14.1696 0 9.53231
1.71319 0 -31.0865
-28.312 0 -1.74559
2.67896 0 17.8203
-70.7156 0 56.3726
17.2919 0 -8.89954
20.6348 0 51.3414
36.1629 0 -97.5905
18.0083 0 -34.5847
6.99675 0 16.3832
31.2572 0 -30.7979
4.0195 0 -12.3702
10.2982 0 -14.9355
45.677 0 -54.3312
11.8276 0 -23.871
-4.75654 0 14.799
69.9437 0 53.6661
-8.12591 0 7.54266
-16.3044 0 8.1969
11.7272 0 7.07266
2.96556 0 50.3081
-5.69207 0 11.0209
-33.9683 0 -3.31006
18.9464 0 -12.416
-2.25151 0 33.966
-62.1749 0 -16.4927
86.4702 0 -23.4501
-7.43901 0 16.2845
3.71594 0 0.040176
36.1338 0 -25.99
-13.8016 0 10.3933
-4.11025 0 12.1079
24.8535 0 -42.1985
-1.54733 0 17.0959
0.136694 0 10.9131
11.9309 0 -1.23312
-6.82461 0 5.63052
6.07104 0 1.55187
64.0671 0 -77.9187
12.9084 0 -30.7526
-5.88856 0 10.9949
-4.4317 0 7.17813
18.0571 0 10.6917
18.6363 0 8.84696
4.86942 0 -0.913204
50.0734 0 -42.1029
17.0446 0 -2.03634
-16.3753 0 7.05956
-0.53028 0 -8.67897
-4.66896 0 7.64043
-8.82142 0 4.61909
-4.66299 0 12.0146
6.50838 0 17.724
-15.4213 0 -21.9297
9.62336 0 -7.48293
132.107 0 21.3658
-22.3574 0 -35.0951
9.70915 0 -11.5032
9.92234 0 13.7391
-83.3602 0 -3.19884
76.8667 0 35.0905
-15.9616 0 4.13985
-9.6012 0 -11.3409
94.4542 0 0.56719
7.01857 0 10.4349
-3.16632 0 49.305
-10.5242 0 7.24588
0.902454 0 24.2432
11.9702 0 6.19811
-69.2833 0 53.1817
1.25104 0 17.5184
-8.87999 0 -28.9766
-48.6112 0 -55.9727
-18.1595 0 66.7685
9.69581 0 -2.82598
7.16247 0 -16.3861
-22.72 0 -3.06492
-7.63812 0 -59.2058
31.0456 0 7.63413
6.74649 0 -9.33143
14.7909 0 18.1384
-24.096 0 -5.66762
-59.4003 0 -34.6081
-2.08818 0 5.63277
-46.2904 0 -59.4542
62.4868 0 52.2013
3.56516 0 10.8879
46.4655 0 -12.8903
-19.7109 0 7.24778
16.7512 0 -9.9796
18.5768 0 -13.5767
35.777 0 -11.1427
22.1839 0 -4.78523
-6.48897 0 -42.9171
-1.48812 0 15.6422
11.7678 0 5.87226
2.19774 0 3.62019
-32.9945 0 135.519
-23.7305 0 -1.94163
-20.8842 0 30.6811
9.1016 0 20.5771
-7.22529 0 -6.21507
-11.5583 0 -1.36455
-15.093 0 7.83418
-4.05625 0 -9.49023
37.3622 0 -22.0538
-28.5382 0 29.3498
40.4984 0 15.3871
-33.0767 0 70.241
27.9358 0 -3.41383
-8.91525 0 1.9231
-4.88037 0 -4.72982
2.93872 0 -22.274
-13.9904 0 -8.6237
-144.935 0 1.43018
-35.5587 0 22.7575
-17.2559 0 -8.64364
-23.1384 0 -22.1507
-51.5799 0 6.86473
-30.398 0 -44.7485
-32.3892 0 2.05793
-48.0842 0 -56.2307
5.2128 0 -12.6735