# vtk DataFile Version 3.0
SiWiRVisFile
ASCII
DATASET UNSTRUCTURED_GRID
POINTS 1600 DOUBLE
76.5788 100 72.3571
75.9579 100 73.401
76.9698 100 73.8498
78.8386 100 73.6126
79.9927 100 73.935
81.1419 100 74.4321
82.9714 100 74.0726
84.1448 100 74.5377
85.2389 100 74.8239
84.2245 100 73.4391
92.1 100 70.5286
91.1844 100 69.8523
91.1834 100 71.1826
90.1641 100 69.7827
86.5506 100 68.9538
90.3791 100 60.8431
91.4403 100 60.5575
92.7932 100 59.3008
89.3512 100 54.3927
94.6743 100 58.1252
105.097 100 40.2052
106.18 100 39.5793
106.088 100 38.3107
107.304 100 38.8339
105.152 100 37.8292
111.579 100 39.1364
110.716 100 32.9105
111.694 100 31.3536
110.955 100 33.9799
111.852 100 33.2089
112.951 100 33.2877
114.02 100 33.603
112.458 100 32.2583
113.696 100 32.5339
113.208 100 39.2263
119.332 100 37.8859
117.047 100 38.7181
118.26 100 38.2943
117.995 100 39.3851
119.454 100 40.2046
129.429 100 57.8457
135.141 100 54.3927
131.405 100 59.22
132.853 100 61.3296
134.313 100 60.8747
135.795 100 69.6699
134.708 100 69.2928
134.335 100 71.6211
133.641 100 69.3492
133.363 100 70.874
140.565 100 73.5871
139.158 100 74.8219
140.251 100 74.6489
141.444 100 74.1395
143.482 100 74.4895
144.552 100 74.1314
145.461 100 73.596
147.511 100 73.5823
148.652 100 73.2869
148.049 100 72.3521
74.995 100 74.129
76.0263 100 74.5721
78.0094 100 74.3331
79.1527 100 74.7189
80.2374 100 75.0785
82.1601 100 74.9583
83.2927 100 75.2833
84.2839 100 75.6449
85.3411 100 75.9055
86.4278 100 76.1906
87.5757 100 76.0615
91.8196 100 68.6248
90.0694 100 71.023
90.8713 100 66.6515
91.7378 100 62.8167
90.6726 100 68.6747
92.526 100 60.3146
93.883 100 59.5544
94.9827 100 59.2772
97.6028 100 58.4694
105.183 100 39.0218
97.3651 100 45.8529
106.391 100 48.354
110.47 100 36.8451
108.204 100 38.1149
110.211 100 39.3398
110.011 100 38.143
109.444 100 37.1237
107.463 100 30.8068
111.906 100 34.6477
113.097 100 34.3221
117.22 100 30.8508
113.87 100 36.1114
115.32 100 37.5142
114.748 100 39.1188
115.805 100 38.9479
114.142 100 37.2811
118.208 100 47.9003
127.127 100 45.8529
119.09 100 39.104
126.603 100 58.367
128.844 100 59.1265
130.472 100 58.6602
132.815 100 60.2988
133.149 100 68.2671
132.468 100 62.4877
132.807 100 65.9399
134.446 100 70.5149
132.422 100 69.3685
137.194 100 76.444
138 100 75.7174
139.016 100 76.0498
140.213 100 75.7349
141.279 100 75.353
142.277 100 74.786
144.294 100 75.2574
145.394 100 74.7993
146.49 100 74.269
148.436 100 74.4671
149.564 100 73.9122
75.0874 100 75.2126
76.1393 100 75.67
77.0437 100 75.003
78.2999 100 75.4084
79.3809 100 75.8623
81.3045 100 75.5882
82.286 100 76.0176
83.5145 100 76.3409
84.6753 100 76.7827
85.8152 100 77.0363
86.9782 100 77.0321
87.3362 100 78.076
89.2644 100 76.6111
91.3551 100 67.6794
92.0018 100 64.8664
93.207 100 63.9686
92.745 100 61.3752
93.5322 100 60.6151
94.703 100 60.4223
96.6622 100 57.6472
98.2107 100 57.3243
104.336 100 49.591
105.452 100 48.838
106.677 100 49.5322
101.216 100 46.1744
107.538 100 48.4399
107.146 100 47.4455
105.327 100 47.7215
110.577 100 35.672
111.649 100 35.7897
112.689 100 35.3994
114.008 100 34.9085
120.672 100 46.9041
117.347 100 47.1938
117.762 100 49.068
121.327 100 47.9005
117.987 100 50.1135
118.907 100 49.0807
120.093 100 50.4787
125.682 100 57.3457
127.963 100 58.1177
130.491 100 59.7447
131.577 100 60.3393
131.857 100 61.5252
132.461 100 63.6786
132.198 100 65.0585
132.928 100 67.1664
135.239 100 76.8821
136.734 100 77.4659
137.88 100 77.3129
139.009 100 77.1539
140.082 100 76.8956
141.12 100 76.4035
142.228 100 76.0994
143.261 100 75.6054
145.22 100 75.9558
146.199 100 75.4965
147.415 100 74.9643
148.404 100 75.6311
149.405 100 75.0239
75.1981 100 76.2921
76.4084 100 76.7277
77.3435 100 76.1518
78.3602 100 76.5427
80.4517 100 76.2087
81.459 100 76.705
82.4496 100 77.1475
84.0051 100 77.6086
85.1168 100 77.9034
86.1471 100 78.1602
87.0267 100 79.2059
88.9734 100 78.1033
88.1136 100 77.3236
92.5711 100 67.5031
91.9808 100 66.4666
93.1931 100 65.3874
94.4538 100 62.776
93.0523 100 62.5449
94.1873 100 61.6117
95.3831 100 61.2211
95.8295 100 60.1224
98.6845 100 58.5242
104.407 100 48.27
105.307 100 53.8735
105.727 100 50.0226
105.935 100 51.606
108.272 100 50.4289
110.6 100 50.9679
108.286 100 47.4799
111.26 100 37.631
113.519 100 38.1845
116.424 100 48.1405
115.196 100 49.3623
115.811 100 50.2421
118.345 100 51.3139
119.053 100 50.2881
119.432 100 51.431
119.866 100 48.5617
125.261 100 58.4595
128.182 100 60.1659
129.403 100 61.1834
130.427 100 61.9303
131.267 100 62.4861
131.4 100 63.6783
130.976 100 64.6518
131.869 100 66.5934
131.933 100 68.0041
136.062 100 76.2333
136.263 100 78.8745
137.402 100 78.3548
138.596 100 78.234
139.774 100 77.838
140.923 100 77.5198
141.997 100 77.1998
143.074 100 76.7799
144.191 100 76.3793
146.151 100 76.5244
147.087 100 76.1004
148.189 100 76.8191
149.371 100 76.1348
75.2627 100 77.4037
76.4127 100 77.9139
77.3349 100 77.3449
79.4164 100 77.0073
80.5573 100 77.352
81.6339 100 77.8769
82.7277 100 78.2899
83.5217 100 79.1124
84.5757 100 78.9463
85.9497 100 79.2226
86.6379 100 80.6723
89.5839 100 78.9124
90.4936 100 76.5082
94.4011 100 65.6379
93.1117 100 66.4816
95.2291 100 63.6408
96.2753 100 63.23
95.5973 100 62.3781
96.4382 100 61.0281
97.3482 100 60.4072
96.6896 100 59.0871
102.72 100 57.5404
104.979 100 52.3938
106.982 100 51.7044
107.137 100 50.5149
108.195 100 51.8489
109.376 100 51.6775
110.579 100 52.1074
107.723 100 49.5104
111.303 100 40.4723
112.608 100 40.6397
116.322 100 49.3389
114.364 100 51.7877
115.289 100 51.2581
116.304 100 51.5586
117.089 100 50.8198
117.337 100 51.9349
117.533 100 53.0081
121.422 100 56.745
127.436 100 59.1367
126.966 100 60.2189
128.072 100 61.4085
129.193 100 62.2984
130.273 100 63.1783
129.159 100 63.4477
130.972 100 67.1481
130.356 100 65.8011
135.72 100 77.7362
135.072 100 78.5851
137.891 100 80.5166
138.094 100 79.3606
139.54 100 78.905
140.61 100 78.5657
141.732 100 78.5215
142.975 100 77.9065
143.964 100 77.439
145.061 100 77.0997
147.195 100 77.293
147.991 100 77.9777
149.326 100 77.353
75.4681 100 78.4823
76.6051 100 78.9272
77.5975 100 78.5254
78.4915 100 77.783
79.6393 100 78.0801
80.6474 100 78.4516
81.5782 100 78.977
82.491 100 79.5751
83.5157 100 80.2032
84.5543 100 80.0714
85.6391 100 80.3658
88.152 100 78.8531
90.1409 100 79.8554
88.6308 100 75.6833
91.1062 100 75.5194
94.3353 100 64.3507
96.4257 100 64.4496
97.3182 100 63.7794
97.0812 100 62.5433
97.4942 100 61.5792
98.0856 100 59.5307
100.944 100 58.7723
104.135 100 55.8667
104.92 100 54.92
106.003 100 52.8707
107.439 100 53.0518
108.613 100 54.1969
108.782 100 52.7782
111.838 100 51.3126
111.502 100 50.2345
114.507 100 50.3725
113.04 100 52.979
115.414 100 52.5295
115.821 100 53.6456
116.574 100 52.7167
118.737 100 52.2713
118.699 100 53.395
121.281 100 55.5479
123.765 100 59.7847
126.093 100 59.4547
126.958 100 61.2846
128.085 100 62.457
127.614 100 63.4552
128.23 100 64.4606
129.821 100 64.4041
134.155 100 75.1307
135.189 100 74.2249
134.609 100 79.6491
137.045 100 79.7166
138.93 100 80.0654
140.073 100 79.8919
141.133 100 80.5585
141.81 100 79.6044
142.809 100 78.9562
143.86 100 78.6322
144.89 100 78.0921
146.039 100 77.5731
146.939 100 78.449
147.931 100 79.0405
149.179 100 78.475
74.4013 100 79.1923
75.4522 100 79.6525
77.5452 100 79.6207
78.5844 100 78.8956
79.6537 100 79.2329
79.5137 100 82.1185
81.3567 100 80.2081
82.4572 100 80.7266
83.4383 100 81.3095
84.5912 100 81.2768
85.8094 100 81.4025
88.8898 100 79.6985
90.8779 100 80.7651
90.0493 100 75.3313
95.7014 100 66.0387
95.4849 100 65.0287
96.71 100 65.564
98.5284 100 64.1952
98.245 100 62.3503
98.3891 100 60.6192
99.7676 100 59.2345
101.949 100 58.3461
103.73 100 57.0099
106.58 100 53.9562
109.127 100 55.1869
109.556 100 53.5939
108.211 100 57.2389
110.608 100 53.3247
107.406 100 57.982
108.889 100 58.4445
116.251 100 58.0035
116.288 100 56.8902
114.583 100 53.2274
115.149 100 57.3366
114.911 100 54.8798
115.971 100 54.7546
116.88 100 53.9356
120.305 100 56.8403
121.956 100 58.148
124.971 100 59.8896
125.679 100 60.7699
127.047 100 62.3081
126.554 100 63.2835
127.321 100 65.4761
129.25 100 65.3174
129.412 100 66.4491
134.974 100 75.8314
131.158 100 82.1424
135.796 100 79.9892
138.612 100 81.28
139.64 100 80.8802
140.54 100 81.6094
142.206 100 80.7766
143.078 100 80.0561
144.824 100 80.3917
144.807 100 79.1923
145.845 100 78.6223
146.979 100 79.5838
148.925 100 79.6382
150.124 100 79.1712
74.1318 100 80.2454
75.2294 100 80.861
76.4922 100 80.1592
77.6189 100 80.736
78.6938 100 80.0788
78.6122 100 81.3066
80.3434 100 80.8013
81.4719 100 81.4014
82.4515 100 81.9193
83.9613 100 82.2325
85.1173 100 82.3888
86.3793 100 82.4433
87.8103 100 79.9759
87.4877 100 81.5947
87.5192 100 82.7271
91.3642 100 79.5729
96.5495 100 66.9942
97.6748 100 64.8843
100.129 100 62.8924
98.9775 100 63.0101
99.1215 100 61.5986
99.5936 100 60.3832
104.74 100 57.877
106.105 100 54.9354
107.666 100 54.8104
109.144 100 56.5258
108.119 100 56.1384
105.683 100 58.7354
106.834 100 58.931
109.436 100 60.6387
115.335 100 59.1856
119.028 100 58.7578
119.512 100 59.7471
116.654 100 55.9027
115.512 100 56.1486
117.176 100 54.9568
117.934 100 54.202
120.935 100 57.8586
124.305 100 60.7327
126.004 100 62.0394
125.451 100 62.9461
125.789 100 64.1211
126.914 100 64.4994
128.298 100 65.7776
131.626 100 81.0137
136.548 100 82.3359
137.417 100 81.534
136.603 100 80.7798
137.695 100 82.5465
138.815 100 82.779
139.423 100 81.9477
141.67 100 81.9922
142.918 100 81.6395
143.831 100 80.8799
145.692 100 81.4086
145.82 100 79.7298
146.727 100 80.7829
148.005 100 80.3229
148.998 100 81.0982
149.884 100 80.3605
74.3079 100 81.4833
75.2663 100 82.434
76.5177 100 81.2079
77.4799 100 81.7673
78.2378 100 83.8039
76.9127 100 84.4891
78.4821 100 82.3776
80.6105 100 81.9981
81.5978 100 82.5267
80.5901 100 83.0177
82.6193 100 83.4066
84.6205 100 83.2953
85.792 100 83.4941
86.9597 100 83.7554
88.7921 100 83.2472
90.705 100 78.7052
97.7224 100 67.5827
97.5201 100 66.1618
99.767 100 64.071
100.55 100 64.8073
100.8 100 60.7032
[...]
POINT_DATA 1600
SCALARS mass double
LOOKUP_TABLE default
1
1
1
1
1
1
1
1
1
1
1
1
1
1
1
1
1
1
1
1
1
1
1
1
1
1
1
1
1
1
1
1
1
1
1
1
1
1
1
1
1
1
1
1
1
1
1
1
1
1
1
1
1
1
1
1
1
1
1
1
1
1
1
1
1
1
1
1
1
1
1
1
1
1
1
1
1
1
1
1
1
1
1
1
1
1
1
1
1
1
1
1
1
1
1
1
1
1
1
1
1
1
1
1
1
1
1
1
1
1
1
1
1
1
1
1
1
1
1
1
1
1
1
1
1
1
1
1
1
1
1
1
1
1
1
1
1
1
1
1
1
1
1
1
1
1
1
1
1
1
1
1
1
1
1
1
1
1
1
1
1
1
1
1
1
1
1
1
1
1
1
1
1
1
1
1
1
1
1
1
1
1
1
1
1
1
1
1
1
1
1
1
1
1
1
1
1
1
1
1
1
1
1
1
1
1
1
1
1
1
1
1
1
1
1
1
1
1
1
1
1
1
1
1
1
1
1
1
1
1
1
1
1
1
1
1
1
1
1
1
1
1
1
1
1
1
1
1
1
1
1
1
1
1
1
1
1
1
1
1
1
1
1
1
1
1
1
1
1
1
1
1
1
1
1
1
1
1
1
1
1
1
1
1
1
1
1
1
1
1
1
1
1
1
1
1
1
1
1
1
1
1
1
1
1
1
1
1
1
1
1
1
1
1
1
1
1
1
1
1
1
1
1
1
1
1
1
1
1
1
1
1
1
1
1
1
1
1
1
1
1
1
1
1
1
1
1
1
1
1
1
1
1
1
1
1
1
1
1
1
1
1
1
1
1
1
1
1
1
1
1
1
1
1
1
1
1
1
1
1
1
1
1
1
1
1
1
1
1
1
1
1
1
1
1
1
1
1
1
1
1
1
1
1
1
1
1
1
1
1
1
1
1
1
1
1
1
1
1
1
1
1
1
1
1
1
1
1
1
1
1
1
1
1
1
1
1
1
1
1
1
1
1
1
1
1
1
1
1
1
1
1
1
1
1
1
1
1
1
1
1
1
1
1
1
1
1
1
1
1
1
1
1
1
1
1
1
1
1
1
1
1
1
1
1
1
1
1
1
1
1
1
1
1
1
1
1
1
1
1
1
1
1
1
1
1
1
1
1
1
1
1
1
1
1
1
1
1
1
1
1
1
1
1
1
1
1
1
1
1
1
1
1
1
1
1
1
1
1
1
1
1
1
1
1
1
1
1
1
1
1
1
1
1
1
1
1
1
1
1
1
1
1
1
1
1
1
1
1
1
1
1
1
1
1
1
1
1
1
1
1
1
1
1
1
1
1
1
1
1
1
1
1
1
1
1
1
1
1
1
1
1
1
1
1
1
1
1
1
1
1
1
1
1
1
1
1
1
1
1
1
1
1
1
1
1
1
1
1
1
1
1
1
1
1
1
1
1
1
1
1
1
1
1
1
1
1
1
1
1
1
1
1
1
1
1
1
1
1
1
1
1
1
1
1
1
1
1
1
1
1
1
1
1
1
1
1
1
1
1
1
1
1
1
1
1
1
1
1
1
1
1
1
1
1
1
1
1
1
1
1
1
1
1
1
1
1
1
1
1
1
1
1
1
1
1
1
1
1
1
1
1
1
1
1
1
1
1
1
1
1
1
1
1
1
1
1
1
1
1
1
1
1
1
1
1
1
1
1
1
1
1
1
1
1
1
1
1
1
1
1
1
1
1
1
1
1
1
1
1
1
1
1
1
1
1
1
1
1
1
1
1
1
1
1
1
1
1
1
1
1
1
1
1
1
1
1
1
1
1
1
1
1
1
1
1
1
1
1
1
1
1
1
1
1
1
1
1
1
1
1
1
1
1
1
1
1
1
1
1
1
1
1
1
1
1
1
1
1
1
1
1
1
1
1
1
1
1
1
1
1
1
1
1
1
1
1
1
1
1
1
1
1
1
1
1
1
1
1
1
1
1
1
1
1
1
1
1
1
1
1
1
1
1
1
1
1
1
1
1
1
1
1
1
1
1
1
1
1
1
1
1
1
1
1
1
1
1
1
1
1
1
1
1
1
1
1
1
1
1
1
1
1
1
1
1
1
1
1
1
1
1
1
1
1
1
1
1
1
1
1
1
1
1
1
1
1
1
1
1
1
1
1
1
1
1
1
1
1
1
1
1
1
1
1
1
1
1
1
1
1
1
1
1
1
1
1
1
1
1
1
1
1
1
1
1
1
1
1
1
1
1
1
1
1
1
1
1
1
1
1
1
1
1
1
1
1
1
1
1
1
1
1
1
1
1
1
1
1
1
1
1
1
1
1
1
1
1
1
1
1
1
1
1
1
1
1
1
1
1
1
1
1
1
1
1
1
1
1
1
1
1
1
1
1
1
1
1
1
1
1
1
1
1
1
1
1
1
1
1
1
1
1
1
1
1
1
1
1
1
1
1
1
1
1
1
1
1
1
1
1
1
1
1
1
1
1
1
1
1
1
1
1
1
1
1
1
1
1
1
1
1
1
1
1
1
1
1
1
1
1
1
1
1
1
1
1
1
1
1
1
1
1
1
1
1
1
1
1
1
1
1
1
1
1
1
1
1
1
1
1
1
1
1
1
1
1
1
1
1
1
1
1
1
1
1
1
1
1
1
1
1
1
1
1
1
1
1
1
1
1
1
1
1
1
1
1
1
1
1
1
1
1
1
1
1
1
1
1
1
1
1
1
1
1
1
1
1
1
1
1
1
1
1
1
1
1
1
1
1
1
1
1
1
1
1
1
1
1
1
1
1
1
1
1
1
1
1
1
1
1
1
1
1
1
1
1
1
1
1
1
1
1
1
1
1
1
1
1
1
1
1
1
1
1
1
1
1
1
1
1
1
1
1
1
1
1
1
1
1
1
1
1
1
1
1
1
1
1
1
1
1
1
1
1
1
1
1
1
1
1
1
1
1
1
1
1
1
1
1
1
1
1
1
1
1
1
1
1
1
1
1
1
1
1
1
1
1
1
1
1
1
1
1
1
1
1
1
1
1
1
1
1
1
1
1
1
1
1
1
1
1
1
1
1
1
1
1
1
1
1
1
1
1
1
1
1
1
1
1
1
1
1
1
1
1
1
1
1
1
1
1
1
1
1
1
1
1
1
1
1
1
1
1
1
1
1
1
1
1
1
1
1
1
1
1
1
1
1
1
1
1
1
1
1
1
1
1
1
1
1
1
1
1
1
1
1
1
1
1
1
1
1
1
1
1
1
1
1
1
1
1
1
1
1
1
1
1
1
1
1
1
1
1
1
1
1
1
1
1
1
1
1
1
1
1
1
1
1
1
1
1
1
1
1
1
1
1
1
1
1
1
1
1
1
1
1
1
1
1
1
1
1
1
1
1
1
1
1
1
1
1
1
1
1
1
1
1
1
1
1
1
1
1
1
1
1
1
1
1
1
1
1
1
1
1
1
1
1
1
1
1
1
1
1
1
1
1
1
1
1
1
1
1
1
1
1
1
1
1
1
1
1
1
1
1
1
1
1
1
1
1
1
1
1
1
1
1
1
1
1
1
1
1
1
1
1
1
1
1
1
1
1
1
1
1
1
1
1
1
1
1
1
1
1
1
1
1
1
1
VECTORS force double
-4.82656 0 15.4692
-6.62974 0 6.18683
1.25252 0 14.9059
17.5465 0 5.93248
-2.78579 0 16.5555
-1.6376 0 6.7392
12.8133 0 22.6435
-11.7798 0 6.30273
-14.4302 0 -6.50494
-5.65419 0 -0.407014
-5.61309 0 -3.2728
76.8152 0 1.6519
-1.39539 0 -13.0001
-69.8469 0 -2.45427
0 0 0
-7.29827 0 2.34594
11.1747 0 0.454427
12.9408 0 -35.7732
0 0 0
2.02261 0 14.2029
11.3799 0 -17.0134
-7.41577 0 -14.3575
40.5993 0 38.0888
-13.7668 0 -2.81185
-33.7214 0 -6.034
-8.06082 0 6.20249
9.75497 0 -8.55274
6.27486 0 11.0113
17.6708 0 10.8272
-19.0206 0 10.2816
-29.0294 0 -24.579
-5.76093 0 18.5767
5.23144 0 2.04085
9.49247 0 -25.7593
-4.66954 0 17.269
-8.42093 0 14.8338
5.41548 0 2.38885
0.0772924 0 7.40271
-1.23702 0 -4.09311
-5.16143 0 -9.21115
-0.713899 0 15.7464
0 0 0
47.2115 0 -8.15087
87.5851 0 54.6892
-8.7072 0 0.302753
-9.89827 0 0.252991
27.1341 0 12.3951
-9.61881 0 -4.59897
-38.2595 0 2.94513
13.8749 0 -1.1393
-45.6291 0 -31.2416
-3.48194 0 22.0988
24.8424 0 -5.44704
5.61719 0 24.5927
-11.242 0 7.03296
-50.9233 0 15.5567
41.7136 0 0.943261
11.2126 0 12.8865
-14.3829 0 14.9888
-5.42911 0 7.60006
10.1472 0 -19.4367
-0.0727908 0 -20.3658
-9.51422 0 11.6535
5.74973 0 -7.61258
-4.96256 0 8.79833
33.0769 0 -50.525
-58.0169 0 -37.9933
75.5199 0 -22.259
21.3195 0 23.6809
-26.4065 0 -128.722
-5.16286 0 14.9749
12.0099 0 35.4637
4.9613 0 -14.8998
4.13728 0 4.27466
12.118 0 -2.77153
12.4955 0 11.0729
-46.8669 0 11.9657
10.2863 0 6.77243
1.59956 0 9.12144
-10.83 0 -13.2588
8.71343 0 -2.06163
0 0 0
37.0916 0 -15.1255
28.4143 0 -13.5618
-0.510023 0 1.79259
10.015 0 -10.7762
9.42014 0 -7.42288
-25.9733 0 17.2617
0 0 0
-7.97298 0 -17.5379
-16.6215 0 39.6812
0 0 0
-4.37659 0 -5.19618
-11.2432 0 5.73373
-32.1829 0 -2.32321
34.1273 0 -11.4992
13.7572 0 -14.9344
2.33447 0 22.4795
0 0 0
-3.59203 0 -9.55868
-9.54216 0 6.25973
-13.8195 0 -3.95342
-22.6446 0 -27.625
-15.5472 0 -59.1056
-12.7179 0 15.7105
-13.1008 0 -2.15594
9.51076 0 34.6773
-2.71291 0 -22.4647
17.0568 0 -14.2364
-19.8817 0 6.77435
-7.15333 0 -15.8256
43.9365 0 -4.43606
-15.1155 0 22.131
7.70021 0 -42.5797
43.873 0 42.7686
30.8433 0 -6.39024
-5.02039 0 -6.61919
-7.30094 0 9.83261
-1.2173 0 -14.0098
-7.84815 0 9.25247
10.1472 0 -0.852672
2.6998 0 -2.87812
23.9186 0 4.91762
-16.3896 0 18.6834
-12.0898 0 -4.64386
-26.6912 0 -23.0012
61.3852 0 23.5749
-42.4593 0 69.6944
13.2956 0 -20.5009
-28.5999 0 33.541
54.5052 0 90.2515
-21.2875 0 28.3726
6.43093 0 6.26368
-8.5856 0 -38.2442
15.2223 0 5.60461
6.37134 0 5.13792
0.721559 0 33.5521
61.7458 0 9.31039
-38.9008 0 -39.209
12.9111 0 15.0769
-5.32952 0 22.3209
16.1768 0 -14.8266
-38.0303 0 31.8838
-33.4558 0 -45.6708
0 0 0
1.63567 0 8.03745
-13.4918 0 -14.5693
32.7815 0 -4.86895
-17.6701 0 5.1655
15.1082 0 -2.59539
31.3392 0 3.70387
3.74121 0 11.0966
5.16428 0 10.3204
-9.35526 0 7.38841
-4.18053 0 -34.6146
-9.39392 0 -7.29945
-7.99645 0 30.7288
-24.4264 0 17.7487
27.5837 0 10.8489
2.70135 0 17.2233
0.655109 0 14.332
-25.8713 0 41.6463
5.35925 0 5.97829
-92.8877 0 9.05241
26.3339 0 -3.76202
-26.9147 0 -29.5694
-20.783 0 -9.64702
-94.4651 0 -117.944
36.3579 0 -16.0855
6.0344 0 11.372
-66.0003 0 -32.932
14.7347 0 -177.466
1.73679 0 40.0216
-21.3898 0 -26.5163
-16.9203 0 13.9131
-28.4945 0 -5.44518
33.3303 0 -82.8374
-5.36855 0 6.4682
-22.5736 0 -9.97694
-8.22297 0 0.936393
15.6827 0 14.7333
-25.2256 0 25.0946
-8.38675 0 -19.978
20.2326 0 15.8332
-38.8013 0 27.4451
-26.1858 0 13.1613
33.0347 0 -2.10778
-23.0743 0 26.5036
-43.5824 0 -6.18666
50.6447 0 -19.2509
17.989 0 -19.6549
-56.4049 0 -82.6517
13.657 0 -18.9628
-20.6132 0 -6.39756
5.27736 0 11.9679
3.33488 0 -19.5697
5.79801 0 -5.6339
1.36197 0 -5.26606
4.41515 0 -8.90969
-1.3091 0 41.1904
-15.9598 0 -12.5235
16.3958 0 5.66686
-10.7519 0 28.2727
24.5461 0 -6.83098
-24.01 0 2.10252
-46.3418 0 9.79874
7.84443 0 31.7421
10.0342 0 6.52194
-12.1474 0 9.97175
-7.6856 0 8.87158
3.36424 0 -3.72013
9.39339 0 7.44195
-16.5728 0 -8.85383
-16.2988 0 83.6074
-48.265 0 -74.7117
-23.7013 0 4.2617
17.4969 0 -25.4021
12.1904 0 -7.06862
19.3519 0 6.09818
-12.781 0 -2.70174
-3.37591 0 9.10284
-102.489 0 -50.7796
92.002 0 75.4385
-29.949 0 -43.8369
-17.6268 0 36.4838
45.1345 0 -15.0047
14.2505 0 -13.785
37.4122 0 -17.1024
-4.30325 0 -7.94431
8.36021 0 17.8905
-0.614803 0 0.0441484
6.60896 0 167.272
35.5355 0 22.8524
6.63587 0 6.42676
13.122 0 -2.39861
-16.0448 0 -17.6037
-54.29 0 76.7156
99.5292 0 -11.4434
15.7874 0 -10.3308
0.603956 0 24.5807
19.9032 0 -6.07416
-20.6217 0 -68.1727
37.5087 0 -7.10697
2.03546 0 -13.8501
-10.7728 0 -3.75398
-14.8347 0 -10.0444
-11.2771 0 3.72981
-25.8194 0 -8.5808
36.4335 0 -13.8639
-35.5304 0 26.5037
64.8423 0 7.34153
78.9482 0 27.8934
-12.8682 0 -12.2616
3.48174 0 -15.4907
-3.45724 0 11.9489
2.01968 0 -1.49688
-8.56966 0 48.5687
-18.3531 0 -10.4265
31.5356 0 19.7297
-26.4281 0 -10.8164
-5.1281 0 13.0501
6.59931 0 -3.53161
13.043 0 -1.60093
54.1573 0 4.0107
6.16445 0 19.0099
-10.9731 0 -12.7025
-0.160834 0 11.645
-7.6391 0 1.60969
29.1228 0 -2.80969
9.90882 0 -11.196
-9.71273 0 -7.43463
36.2147 0 -56.5386
-12.4483 0 20.5798
-9.20367 0 -23.6967
3.10246 0 31.2342
18.8551 0 -13.4188
28.2984 0 -25.1858
130.426 0 58.2539
-4.47284 0 5.4994
2.63092 0 14.1467
3.74255 0 -37.4212
6.45108 0 -47.9667
12.0007 0 1.44205
7.76536 0 -4.69507
-4.80249 0 1.77774
-26.8206 0 20.3291
-6.07407 0 -10.6376
57.7531 0 145.919
35.7759 0 18.5703
-39.1987 0 -43.3975
-2.72637 0 -21.1659
-18.1828 0 16.0666
-0.0102334 0 21.217
8.19947 0 -34.1444
-16.9128 0 -28.3208
16.7722 0 24.3309
9.85144 0 -120.036
-61.2457 0 -28.5257
43.8948 0 -5.25306
-17.5384 0 -11.4259
-1.24595 0 31.9116
-22.0556 0 87.6655
-17.6015 0 -51.9094
-0.099807 0 -16.9695
-29.1289 0 5.36939
-6.12506 0 5.48553
18.259 0 19.5566
13.4449 0 12.6804
-58.0284 0 14.0634
41.3713 0 1.35187
-56.3121 0 -60.9066
-9.00147 0 7.96655
15.1306 0 -0.407275
6.48286 0 1.82989
17.0278 0 11.4908
0.542469 0 9.33114
7.2998 0 -6.61369
5.77381 0 -7.67086
14.1971 0 24.8283
1.82908 0 -76.2302
-4.22648 0 -10.0204
-22.2707 0 10.1935
-85.7078 0 -119.075
-7.00072 0 -1.74655
7.09383 0 5.28245
-2.23333 0 -3.64469
-5.5944 0 -9.5971
2.00719 0 6.17879
-16.6794 0 -0.715228
-5.87976 0 7.33129
24.4709 0 4.51804
5.54561 0 -1.22996
23.2897 0 -24.6883
-15.3767 0 -21.4379
-133.571 0 -17.0899
-0.187677 0 67.1815
-23.7191 0 -47.3095
-0.920489 0 14.4426
6.81687 0 -7.96486
-0.873818 0 -2.65408
-20.273 0 -36.7841
47.2582 0 46.6107
16.0282 0 16.7519
-4.29732 0 8.33325
18.9951 0 -26.7581
-7.1867 0 -17.6164
-7.13842 0 10.0538
13.0106 0 -11.0583
-12.9884 0 4.01455
2.13958 0 -4.89732
14.8569 0 -15.4494
-23.0587 0 -0.822321
13.4248 0 28.1229
-27.3594 0 36.9944
4.53984 0 -21.9895
-26.0098 0 87.5011
21.9974 0 25.3603
8.59178 0 -13.5723
15.7052 0 31.2777
-14.982 0 12.6199
20.3623 0 -17.1523
2.84432 0 1.9081
3.71057 0 5.7407
33.4236 0 24.9277
2.22512 0 -5.51458
19.1306 0 -3.74843
15.4247 0 3.1335
-6.45783 0 2.64715
-18.5176 0 -24.3177
9.996 0 -4.05124
-10.2 0 62.126
-14.9164 0 28.841
-1.76478 0 -19.0262
-27.3195 0 14.0364
12.0364 0 64.706
-28.1242 0 -61.3837
-82.8151 0 -73.1034
18.2207 0 -9.3514
-106.209 0 -91.8692
40.9849 0 20.7278
-2.07897 0 -0.22193
9.38923 0 -3.18367
-1.22141 0 1.61847
3.417 0 -25.2636
-10.1827 0 13.707
-15.4252 0 3.07607
18.5563 0 1.41456
12.601 0 -16.5872
3.52272 0 12.4039
34.0292 0 -67.387
-11.7814 0 1.27695
-7.88057 0 52.6075
-4.51321 0 8.48238
24.9285 0 -9.02991
-19.2215 0 4.13591
51.556 0 5.53671
-22.6484 0 -36.5835
5.08419 0 12.5558
26.6598 0 3.90398
16.2463 0 -25.6149
4.69104 0 8.64566
-3.48612 0 62.9762
-33.0371 0 8.70057
-67.7122 0 15.8492
24.0095 0 2.28765
-4.83842 0 -13.4813
18.6623 0 -1.33511
-1.12395 0 -5.64653
4.76003 0 -19.1097
-19.159 0 5.20951
20.8658 0 18.956
1.59163 0 -2.79825
5.36005 0 -1.16738
-9.98485 0 -5.39352
18.2865 0 -10.4103
18.6416 0 18.4681
-4.74723 0 34.0256
-13.5598 0 16.391
8.90629 0 -2.22099
-21.8753 0 9.8148
15.6637 0 28.3506
11.6554 0 -16.5251
7.78376 0 -54.2158
0.962363 0 -53.8559
-14.3338 0 -4.09764
-3.23053 0 -21.2599
15.455 0 14.132
30.3833 0 -46.0947
50.1699 0 -31.8293
27.373 0 35.3629
39.9977 0 -64.052
-5.11148 0 2.88478
-2.98714 0 3.73016
-17.0305 0 -4.16241
-4.63639 0 12.6461
-18.3971 0 37.0253
13.1877 0 -19.2291
-40.4792 0 -1.86017
-12.3473 0 1.58417
124.56 0 114.94
-25.2575 0 -7.76655
-2.87384 0 12.0887
0.245059 0 -7.42079
10.8164 0 -20.1087
-8.16548 0 11.082
0.775789 0 -0.275107
-16.2036 0 -25.7506
8.5202 0 -16.7884
-26.4547 0 -41.2731
-12.2146 0 -28.8158
5.01746 0 -5.55187
79.7042 0 -4.34063
1.78747 0 20.5317
-8.11404 0 -29.0567
-11.7979 0 -19.1768
-1.55424 0 30.6989
13.0684 0 -15.4868
-47.4551 0 -18.1747
15.0151 0 28.3804
-1.79509 0 -42.9176
-9.76341 0 29.7873
0.223816 0 -0.394457
-16.48 0 -48.8954
40.9221 0 40.2753
42.851 0 48.5503
16.6267 0 5.65358
-2.19103 0 -33.9123
9.85787 0 -8.57158
9.55819 0 45.1216
-36.6441 0 62.0091
80.4613 0 -7.10816
-33.708 0 -78.0172
6.50059 0 3.02518
-10.9431 0 16.7624
1.49104 0 1.4326
1.11146 0 12.7715
3.64668 0 -1.98488
-4.03536 0 -0.818058
61.0572 0 -38.481
-12.3886 0 -2.41502
3.77247 0 -3.53357
4.63584 0 -34.2091
-1.16938 0 21.6267
8.94158 0 66.9003
-23.2732 0 19.614
17.0777 0 14.8613
-63.4805 0 16.5207
-30.526 0 -68.0713
-27.8352 0 39.3255
-5.3056 0 95.3866
22.4131 0 -34.6557
-49.9562 0 16.0255
30.5835 0 -38.7254
-13.4703 0 -59.9388
0.636966 0 -5.22506
-3.055 0 20.2785
-28.2079 0 34.043
2.70677 0 117.201
-30.4908 0 -26.7647
26.5007 0 19.0431
-18.71 0 3.04406
2.19065 0 5.45011
107.946 0 127.794
-12.0738 0 45.7583
20.5546 0 -3.88673
2.30356 0 -16.1848
4.3131 0 10.268
50.2719 0 38.2893
-0.701913 0 26.1202
-110.443 0 24.9579
-52.0114 0 -12.8199
-17.369 0 -39.6379
-31.3168 0 24.8219
7.33545 0 -56.1999
-13.8269 0 -21.9372
-119.014 0 70.2946
20.3374 0 47.8936
10.4575 0 13.844
-11.4863 0 -21.8148
4.47036 0 10.4553
-67.1232 0 -58.6885
-3.1111 0 -14.0467
3.37987 0 -16.894
-3.6442 0 -13.931
-41.8662 0 -0.117841
14.8095 0 -27.6512
-3.48114 0 4.23467
6.59086 0 -2.29948
-16.4993 0 -20.6828
-10.1115 0 25.8098
-8.69262 0 28.5033
51.3903 0 43.1263
-21.0102 0 -57.0383
-12.4411 0 3.71256
29.0778 0 7.3875
13.4091 0 -10.8417
-10.9927 0 0.787709
-95.4516 0 -32.6358
77.5125 0 30.1596
-18.8934 0 -11.8425
-109.97 0 18.9616
95.7402 0 -15.5647
-1.32354 0 30.0278
5.22229 0 14.0005
27.7515 0 -24.6656
44.3106 0 -4.53126
-38.5508 0 108.89
46.7562 0 -104.098
-0.820761 0 6.55008
-41.51 0 -59.9774
-63.7843 0 14.0071
2.98136 0 -38.3868
-29.4137 0 70.3649
15.3133 0 6.97049
15.0707 0 64.1775
12.3667 0 11.0823
1.20391 0 5.43874
-11.3197 0 -20.0529
1.81095 0 -20.4288
-8.15081 0 -6.63541
94.1445 0 -35.7908
-4.62669 0 -14.3015
13.566 0 -0.823999
6.88985 0 14.3722
-12.4995 0 -15.8736
8.26651 0 2.53639
25.7948 0 -6.22683
-44.0239 0 -14.3734
21.5191 0 8.93069
6.64754 0 -16.8254
-31.266 0 9.27191
-49.0339 0 -0.533282
18.1474 0 -13.3932
19.9271 0 40.3962
-10.7803 0 14.5866
-19.7375 0 -6.64207
-10.3695 0 -1.63977
6.79178 0 -9.07615
14.2238 0 33.0061
8.50351 0 -0.194134
42.3091 0 -7.77607
-2.27187 0 -2.17131
-3.56965 0 32.8497
-22.4274 0 10.4516
25.168 0 16.1748
24.2298 0 -18.9765
15.2643 0 -57.456
-5.70513 0 -1.23854
22.2355 0 4.94769
-2.79166 0 5.05879
0.970722 0 -11.3184
20.3203 0 20.6503
-43.5207 0 -2.90791
-2.31866 0 -2.08969
34.4766 0 23.6892
-63.219 0 52.7904
-126.042 0 -101.754
28.6143 0 -35.9266
-1.7205 0 -6.13846
-7.37014 0 -13.5376
-19.7903 0 17.1515
-33.1915 0 -54.5134
26.561 0 75.4317
11.3622 0 -6.80369
-8.27924 0 -40.2545
29.1279 0 -29.0855
17.8002 0 -79.2972
-140.956 0 65.0314
-11.513 0 -2.33746
33.1547 0 63.1904
6.13035 0 -7.54654
33.3617 0 39.9397
0.766094 0 15.5232
-2.55313 0 -23.1107
-2.54181 0 -22.3002
-19.5736 0 16.176
6.39547 0 -9.73845
9.7627 0 17.1077
-0.652334 0 -15.1017
-29.2238 0 -53.9053
12.8607 0 -21.5065
-12.8725 0 5.62284
57.994 0 -1.6543
-8.62858 0 15.4088
-9.50752 0 -11.1752
-12.5634 0 -11.9223
-12.5604 0 22.8132
19.1005 0 57.5365
-34.9737 0 -17.433
48.097 0 43.0945
25.256 0 1.57995
-62.1448 0 21.3091
125.001 0 -38.972
33.4755 0 -9.19005
5.67207 0 -4.56068
12.2732 0 -7.14438
117.676 0 -26.905
81.8305 0 41.7744
-21.602 0 7.97349
19.3971 0 0.192603
-13.7985 0 16.5884
-3.54611 0 -1.30318
-69.5673 0 -1.27076
4.57503 0 8.07669
3.00769 0 6.62679
-96.0523 0 -26.7447
63.0118 0 64.3591
3.05905 0 42.2416
-15.5266 0 12.444
-13.0938 0 -110.123
28.6384 0 -61.1237
-31.9196 0 -39.0198
33.778 0 13.1391
-3.61685 0 -2.44178
-48.8626 0 -26.8771
79.821 0 6.22366
54.6005 0 74.2947
12.6099 0 -15.517
68.9315 0 9.81028
-41.8419 0 -8.547
11.852 0 9.99307
17.1875 0 0.920409
11.0093 0 -91.6216
4.56671 0 1.91182
-15.9085 0 55.9664
12.0273 0 -12.1885
9.23154 0 32.5771
-14.646 0 -43.5771
-15.8972 0 -34.3037
122.054 0 -77.3642
-51.3462 0 25.2569
34.1324 0 -10.456
2.73743 0 -11.6445
0.061167 0 -4.41761
1.8207 0 12.0855
10.462 0 6.29263
-4.66389 0 20.0496
-38.4951 0 -26.9788
-9.85774 0 38.2935
10.3346 0 -17.9774
56.4477 0 18.8971
-0.234082 0 -3.8093
-9.46457 0 -1.24212
-0.689667 0 -13.9211
0.435721 0 5.98737
-7.56086 0 -14.112
49.7957 0 -51.1951
-22.7276 0 -34.3231
15.4605 0 -27.1597
-51.6065 0 -2.85135
43.2552 0 -4.67556
-31.7694 0 -14.9939
9.51405 0 -3.07944
-23.4054 0 15.089
0.0564244 0 -13.2632
1.73694 0 -6.40165
11.5078 0 -2.34846
-61.0925 0 -57.1169
36.7288 0 11.3455
-16.9539 0 -8.30918
63.2126 0 29.7759
-10.3852 0 -2.80598
4.77523 0 -27.6977
-10.0066 0 17.92
68.2967 0 -55.6372
-21.6796 0 -19.1652
21.4447 0 -7.08588
3.07329 0 -10.0629
-10.3362 0 -42.7906
-15.7611 0 102.921
-42.7369 0 -20.4209
66.4895 0 48.178
-16.7193 0 -0.542264
-2.48005 0 -20.9223
23.8344 0 -18.4773
-25.4626 0 51.8764
-74.7724 0 -12.5148
11.3804 0 9.68025
36.7796 0 11.6079
-4.11206 0 0.255964
3.96495 0 3.44019
17.589 0 -8.09246
31.955 0 1.67502
0.519983 0 97.8126
-8.02217 0 18.4703
-0.0266984 0 71.9741
17.1195 0 -15.9189
-7.24489 0 -15.3605
8.4348 0 5.31412
0.951598 0 15.0837
9.68338 0 -19.8376
-15.1182 0 4.30032
9.8438 0 -8.71451
-4.93811 0 -10.3661
-23.2636 0 -8.90587
10.2799 0 1.30405
-10.1472 0 5.06651
8.66221 0 -2.80715
-44.1027 0 65.5134
-13.0999 0 -108.272
4.45177 0 8.03846
42.3779 0 -16.8181
25.9496 0 -9.04191
-55.9495 0 30.9706
0.324003 0 0.0792596
25.9327 0 22.1171
-10.3752 0 14.2681
-16.5249 0 11.3857
-10.1679 0 18.5382
-9.77658 0 12.8619
4.00885 0 -1.69262
15.5838 0 59.479
0.676029 0 -6.89639
6.55958 0 -9.54858
-25.4858 0 -27.695
7.08633 0 -8.50064
-39.5626 0 22.8905
-1.61217 0 6.09272
-12.3241 0 -14.3258
5.88319 0 8.1482
38.6178 0 39.1785
-1.72145 0 -9.73785
-80.4973 0 -59.7327
-43.6871 0 7.20453
30.8166 0 -1.28291
-19.2804 0 18.4381
7.21541 0 -6.56408
-40.6235 0 47.3105
4.79591 0 84.3294
27.3125 0 15.837
-79.4791 0 -29.3972
6.53572 0 -26.511
37.037 0 38.6006
11.5371 0 7.83027
-39.0919 0 23.9932
-16.7347 0 7.27276
21.8794 0 14.5741
44.7832 0 -0.364182
-4.4736 0 -9.69834
4.24277 0 4.39723
27.3525 0 4.6247
-30.08 0 -0.15185
-2.81593 0 -14.3117
-9.56069 0 9.72867
4.98756 0 -6.35447
-38.9659 0 25.5582
-5.89882 0 -2.94142
0.993878 0 -10.9616
18.6578 0 57.3051
-16.3277 0 -6.09676
11.9106 0 14.695
-7.52893 0 -6.8927
5.62604 0 3.75666
-13.9919 0 -2.73412
15.8802 0 -15.1913
22.7652 0 -64.0255
16.6471 0 18.5729
-9.1935 0 -6.94552
24.5939 0 -0.728153
86.0013 0 56.4424
5.86684 0 18.8244
-0.641674 0 3.55326
-52.3286 0 21.1657
-21.4038 0 -40.1869
-35.1517 0 19.502
29.8081 0 -2.87396
-9.51438 0 13.2837
-20.0398 0 -7.85037
-8.77163 0 -1.89439
-17.4087 0 -86.4081
-0.393221 0 20.5252
3.33407 0 19.4604
5.70589 0 -3.42413
9.12378 0 5.71561
-14.4415 0 -29.0114
27.5908 0 -26.5989
32.8661 0 -104.809
-11.0971 0 -100.776
-13.1504 0 21.1674
-14.9043 0 5.59302
12.7488 0 2.1415
1.38785 0 -6.4356
-8.41746 0 -3.2748
-0.368596 0 5.21283
57.7214 0 84.0878
-4.30245 0 7.60661
-8.806 0 -19.2407
7.57133 0 -16.9596
-17.8067 0 -21.2241
24.1791 0 4.93382
59.2937 0 65.988
-13.1104 0 3.96192
6.09491 0 4.35111
-9.18999 0 -8.40879
0.38001 0 -3.91803
-6.30648 0 -9.06377
-3.63762 0 -8.37705
-52.3401 0 46.4442
-13.1474 0 -21.9011
36.4196 0 15.4721
0.863482 0 10.2403
-39.8925 0 -4.13361
29.1001 0 32.1966
-8.3156 0 10.5198
-0.0616603 0 -13.0594
22.6347 0 -26.1798
21.0295 0 0.149794
-10.425 0 -26.769
25.7401 0 7.90067
-40.8495 0 21.2704
5.77577 0 -12.0549
-19.4357 0 -10.3408
7.77119 0 12.7741
3.54308 0 -1.24866
-1.05834 0 99.7719
-10.909 0 -82.2589
6.79068 0 -10.6449
-0.219497 0 -20.3592
-6.47303 0 -34.5268
-3.79616 0 13.9074
-7.59798 0 -3.31077
-6.4852 0 -2.71345
-3.46279 0 5.03761
-31.799 0 22.4974
4.81695 0 -37.6173
28.0117 0 -19.4839
-18.3457 0 -9.53138
-1.61079 0 5.44836
46.504 0 82.2922
-20.6477 0 5.93104
17.7177 0 -9.38077
-17.3244 0 -11.1444
-1.36834 0 -16.8922
16.7897 0 1.32693
22.461 0 49.8397
-18.7471 0 64.2063
0.411536 0 -4.16431
-59.6701 0 114.731
-4.045 0 100.262
-3.22569 0 -94.7372
5.41172 0 -28.5003
1.37775 0 8.40864
15.2001 0 -0.829001
30.2871 0 -11.813
8.53785 0 -4.98098
-8.95856 0 -9.17759
18.0266 0 -3.05235
10.3848 0 -0.90017
-40.6438 0 -67.6938
4.65684 0 -5.67627