# vtk DataFile Version 3.0
SiWiRVisFile
ASCII
DATASET UNSTRUCTURED_GRID
POINTS 1600 DOUBLE
77.0532 100 74.215
78.3654 100 74.6604
79.336 100 75.1584
81.2435 100 74.7562
82.2377 100 75.1969
83.3667 100 75.3055
84.8312 100 75.3287
85.9367 100 75.6739
87.025 100 75.8011
86.5618 100 74.7747
90.0824 100 75.7347
91.2899 100 75.0209
90.297 100 74.5058
90.5463 100 73.3545
89.9836 100 72.3216
92.7191 100 68.3392
93.8437 100 68.2949
95.8762 100 67.7144
94.6213 100 65.4377
97.9778 100 66.8447
103.901 100 55.6609
103.533 100 58.0727
104.44 100 57.3397
106.06 100 56.4808
104.928 100 56.1934
107.358 100 55.9877
109.501 100 53.6932
109.931 100 52.5309
110.568 100 53.4337
111.7 100 52.9172
112.792 100 52.9171
113.924 100 53.4338
114.561 100 52.5309
114.992 100 53.6931
117.134 100 55.9878
119.564 100 56.1934
118.432 100 56.4808
120.052 100 57.3397
120.959 100 58.0727
120.591 100 55.6609
126.515 100 66.8447
129.871 100 65.4377
128.616 100 67.7143
130.649 100 68.2949
131.773 100 68.3391
134.509 100 72.3217
133.946 100 73.3544
134.195 100 74.5058
133.202 100 75.021
134.41 100 75.7347
137.931 100 74.7747
137.467 100 75.8011
138.556 100 75.6739
139.661 100 75.3287
141.126 100 75.3055
142.255 100 75.1969
143.249 100 74.7562
145.156 100 75.1585
146.127 100 74.6604
147.439 100 74.215
77.4263 100 75.2585
78.4503 100 75.8643
80.4558 100 75.5489
81.4511 100 76.0237
82.5973 100 76.2635
83.988 100 76.196
85.2262 100 76.4427
86.3125 100 76.7248
87.3202 100 77.0696
88.4214 100 77.4073
89.3225 100 76.9504
91.7494 100 75.9583
91.4157 100 73.9812
91.972 100 72.964
92.5003 100 72.0911
91.1602 100 72.2086
94.9351 100 68.718
96.9538 100 67.3988
97.9285 100 68.7411
99.9475 100 67.3266
103.326 100 56.7127
99.8148 100 61.9934
104.28 100 62.8731
109.815 100 56.6637
106.449 100 55.4536
107.5 100 57.3267
108.752 100 56.5994
109.417 100 55.6678
110.208 100 54.6659
111.212 100 54.4722
113.28 100 54.4725
114.284 100 54.6659
115.075 100 55.6678
115.741 100 56.5993
116.992 100 57.3267
118.043 100 55.4537
114.677 100 56.6636
120.212 100 62.8735
124.678 100 61.9934
121.167 100 56.7127
124.545 100 67.3264
126.564 100 68.7412
127.539 100 67.3985
129.557 100 68.7181
133.332 100 72.2085
131.992 100 72.0911
132.52 100 72.964
133.077 100 73.9812
132.743 100 75.9583
135.17 100 76.9504
136.071 100 77.4073
137.172 100 77.0696
138.18 100 76.7248
139.266 100 76.4427
140.504 100 76.196
141.895 100 76.2635
143.041 100 76.0237
144.037 100 75.5489
146.042 100 75.8643
147.066 100 75.2585
77.4125 100 76.339
78.4454 100 76.9326
79.4864 100 76.2779
80.5215 100 76.678
81.6105 100 77.2133
83.3176 100 77.1589
84.36 100 77.3198
85.5337 100 77.5145
86.533 100 77.9352
87.6286 100 78.1237
89.1503 100 78.3014
90.2748 100 78.58
91.3274 100 77.9691
92.4094 100 75.0529
93.8133 100 72.2025
94.4904 100 71.2325
94.7375 100 69.9688
95.8734 100 69.3074
96.8495 100 68.5481
98.8356 100 67.891
101.133 100 66.7144
103.487 100 63.6318
105.383 100 63.5124
106.429 100 63.0766
106.409 100 60.1099
107.391 100 62.3292
107.874 100 61.3494
106.367 100 61.8971
110.485 100 55.6782
111.57 100 55.6412
112.922 100 55.6415
114.007 100 55.6781
118.124 100 61.8947
116.617 100 61.3502
117.102 100 62.3294
118.084 100 60.1096
118.065 100 63.0748
119.108 100 63.5132
121.006 100 63.6318
123.359 100 66.7143
125.657 100 67.8907
127.643 100 68.5482
128.619 100 69.3077
129.755 100 69.9688
130.002 100 71.2327
130.679 100 72.2026
132.083 100 75.0529
133.165 100 77.9691
134.218 100 78.58
135.342 100 78.3014
136.864 100 78.1237
137.959 100 77.9352
138.959 100 77.5145
140.132 100 77.3198
141.175 100 77.1589
142.882 100 77.2133
143.971 100 76.678
145.006 100 76.2779
146.047 100 76.9326
147.08 100 76.339
77.5763 100 77.6402
78.5837 100 78.0621
79.483 100 77.3781
80.5569 100 77.7846
82.5089 100 77.801
83.6372 100 78.2327
84.7134 100 78.572
85.8122 100 78.8677
86.8957 100 78.9622
88.2374 100 79.0827
89.3487 100 79.3692
90.4013 100 79.7085
91.2781 100 79.0828
93.3342 100 74.1529
93.1426 100 73.1172
95.4 100 73.1692
95.5092 100 72.0539
95.503 100 70.9502
96.5015 100 70.2672
97.6187 100 69.7112
98.965 100 69.0547
101.073 100 67.9083
104.356 100 64.304
105.153 100 65.7618
105.533 100 64.7282
106.542 100 64.2332
108.918 100 64.4625
109.866 100 63.9021
109.048 100 62.0763
110.897 100 56.9487
113.596 100 56.9485
115.443 100 62.0749
114.627 100 63.9025
115.574 100 64.462
117.951 100 64.2316
118.96 100 64.728
119.338 100 65.762
120.136 100 64.3039
123.42 100 67.9081
125.527 100 69.0545
126.874 100 69.7113
127.991 100 70.2673
128.989 100 70.95
128.983 100 72.0537
129.092 100 73.1692
131.35 100 73.1173
131.158 100 74.1529
133.214 100 79.0828
134.091 100 79.7085
135.144 100 79.3693
136.255 100 79.0827
137.597 100 78.9622
138.68 100 78.8677
139.779 100 78.572
140.855 100 78.2327
141.984 100 77.801
143.935 100 77.7846
145.009 100 77.3781
145.909 100 78.0621
146.916 100 77.6402
77.7782 100 78.7242
78.8169 100 79.1807
79.5792 100 78.4977
81.4939 100 78.3273
82.597 100 78.8601
83.6331 100 79.3032
84.8117 100 79.5801
86.2811 100 79.9229
87.4341 100 79.9666
88.5253 100 80.1945
89.2768 100 81.1095
91.3813 100 80.2394
92.4552 100 78.6018
94.3273 100 75.241
94.2342 100 73.5172
96.2591 100 73.9501
96.5368 100 72.5983
96.536 100 71.4517
97.4901 100 70.7852
98.7728 100 70.7372
99.9912 100 68.7153
102.818 100 68.7492
106.272 100 65.5556
107.249 100 65.0372
107.828 100 64.1793
108.34 100 65.3372
109.643 100 65.3171
110.624 100 65.7702
108.563 100 63.1017
111.742 100 58.402
112.751 100 58.402
115.929 100 63.1007
113.869 100 65.7706
114.85 100 65.3158
116.154 100 65.3363
116.666 100 64.1829
117.244 100 65.0394
118.221 100 65.5569
121.675 100 68.7496
124.501 100 68.7152
125.719 100 70.7376
127.002 100 70.7852
127.956 100 71.4517
127.955 100 72.5984
128.234 100 73.95
130.258 100 73.5169
130.166 100 75.2408
132.037 100 78.6018
133.111 100 80.2393
135.216 100 81.1094
135.967 100 80.1945
137.058 100 79.9666
138.211 100 79.9229
139.681 100 79.5801
140.859 100 79.3032
141.895 100 78.8601
142.998 100 78.3273
144.913 100 78.4977
145.676 100 79.1807
146.714 100 78.7242
77.6845 100 79.7979
78.4584 100 80.5847
79.7357 100 79.6588
80.6923 100 79.0451
81.6503 100 79.607
82.705 100 80.0031
83.9623 100 80.3131
85.0106 100 80.6109
86.0183 100 81.0146
87.0695 100 81.1461
88.1141 100 81.2703
90.4218 100 81.0755
92.4678 100 80.7895
93.5394 100 78.2644
93.9987 100 77.0637
95.1867 100 74.2546
97.3323 100 74.3501
97.6449 100 73.0477
98.1942 100 71.6136
99.631 100 71.3866
99.5608 100 70.0134
101.788 100 69.1352
104.005 100 68.5574
105.586 100 68.4351
105.727 100 67.2351
107.489 100 66.3066
108.64 100 66.4244
109.864 100 66.5967
111.652 100 66.0191
111.436 100 64.9047
113.059 100 64.904
112.84 100 66.0184
114.628 100 66.5985
115.851 100 66.4224
117.002 100 66.307
118.764 100 67.2351
118.904 100 68.4351
120.488 100 68.5583
122.705 100 69.1348
124.931 100 70.0132
124.861 100 71.3865
126.298 100 71.6135
126.847 100 73.0478
127.161 100 74.3491
129.306 100 74.2544
130.494 100 77.0637
130.953 100 78.2649
132.025 100 80.7895
134.071 100 81.0753
136.378 100 81.2703
137.423 100 81.1461
138.474 100 81.0146
139.482 100 80.6109
140.53 100 80.3131
141.787 100 80.0031
142.842 100 79.607
143.8 100 79.0451
144.757 100 79.6588
146.034 100 80.5847
146.808 100 79.7979
77.3816 100 80.8795
78.404 100 81.6667
79.6372 100 80.7548
80.663 100 80.2717
81.7068 100 81.0434
82.97 100 81.1165
84.1658 100 81.3569
85.3364 100 81.7644
86.6784 100 82.1263
87.7938 100 82.3979
88.8766 100 82.2115
91.45 100 81.391
92.3784 100 81.8947
94.2421 100 79.059
95.8573 100 77.4642
96.8114 100 75.3048
97.6903 100 75.9395
98.5562 100 73.8631
99.0597 100 72.4733
100.439 100 70.6939
100.812 100 69.6827
102.454 100 69.9002
105.045 100 69.4225
106.766 100 68.0375
107.939 100 67.5343
108.939 100 67.876
109.877 100 68.6586
110.984 100 66.9488
109.409 100 69.8129
110.502 100 69.6774
113.984 100 69.6745
115.087 100 69.8154
113.507 100 66.9496
114.615 100 68.6574
115.554 100 67.8792
116.554 100 67.5346
117.725 100 68.039
119.447 100 69.4211
122.039 100 69.8999
123.681 100 69.6822
124.053 100 70.6937
125.433 100 72.4733
125.937 100 73.8637
126.802 100 75.9412
127.679 100 75.3046
128.635 100 77.4641
130.25 100 79.0592
132.114 100 81.8953
133.043 100 81.3909
135.616 100 82.2113
136.699 100 82.3978
137.814 100 82.1264
139.156 100 81.7644
140.327 100 81.3569
141.522 100 81.1165
142.786 100 81.0434
143.829 100 80.2717
144.855 100 80.7548
146.088 100 81.6667
147.111 100 80.8795
77.402 100 82.0751
78.2157 100 82.7695
79.4399 100 81.8498
80.229 100 82.5758
80.4234 100 81.5303
81.4135 100 82.1958
83.3802 100 82.0958
84.4766 100 82.5954
85.6722 100 82.684
86.8761 100 83.3212
88.041 100 83.52
89.3935 100 83.2401
90.1183 100 82.383
90.7909 100 83.3525
91.7826 100 83.9314
93.4502 100 81.7187
96.7981 100 76.6112
98.2124 100 74.9771
99.5966 100 73.8927
100.142 100 72.3789
100.947 100 71.5821
101.479 100 70.5624
103.56 100 69.5923
106.298 100 69.2737
107.479 100 68.7236
108.695 100 68.9763
108.036 100 69.8424
108.459 100 70.9963
109.864 100 70.9832
111.091 100 70.7758
113.41 100 70.7668
114.627 100 70.984
116.021 100 70.9846
116.455 100 69.8452
115.798 100 68.9772
117.014 100 68.7265
118.195 100 69.2753
120.932 100 69.5926
123.013 100 70.5618
123.545 100 71.5819
124.351 100 72.3792
124.896 100 73.8918
126.281 100 74.9769
127.694 100 76.6108
131.043 100 81.7187
132.71 100 83.9314
133.702 100 83.3526
134.374 100 82.3829
135.099 100 83.2401
136.451 100 83.5199
137.616 100 83.3213
138.82 100 82.6841
140.016 100 82.5954
141.112 100 82.0958
143.079 100 82.1958
144.069 100 81.5303
144.263 100 82.5758
145.052 100 81.8498
146.277 100 82.7695
147.09 100 82.0751
77.1838 100 83.1842
78.0286 100 83.8731
79.2109 100 83.0372
79.8806 100 83.8868
81.0143 100 83.2975
82.1266 100 83.5908
83.1958 100 83.399
84.1914 100 83.6721
85.3808 100 83.7047
86.0126 100 84.5079
87.3103 100 84.4229
88.5146 100 84.5553
89.6552 100 84.5446
90.785 100 84.4904
92.8636 100 83.85
93.4502 100 80.4121
96.9522 100 77.7873
98.0235 100 76.9098
99.3481 100 75.1059
100.436 100 74.9478
[...]
POINT_DATA 1600
SCALARS mass double
LOOKUP_TABLE default
1
1
1
1
1
1
1
1
1
1
1
1
1
1
1
1
1
1
1
1
1
1
1
1
1
1
1
1
1
1
1
1
1
1
1
1
1
1
1
1
1
1
1
1
1
1
1
1
1
1
1
1
1
1
1
1
1
1
1
1
1
1
1
1
1
1
1
1
1
1
1
1
1
1
1
1
1
1
1
1
1
1
1
1
1
1
1
1
1
1
1
1
1
1
1
1
1
1
1
1
1
1
1
1
1
1
1
1
1
1
1
1
1
1
1
1
1
1
1
1
1
1
1
1
1
1
1
1
1
1
1
1
1
1
1
1
1
1
1
1
1
1
1
1
1
1
1
1
1
1
1
1
1
1
1
1
1
1
1
1
1
1
1
1
1
1
1
1
1
1
1
1
1
1
1
1
1
1
1
1
1
1
1
1
1
1
1
1
1
1
1
1
1
1
1
1
1
1
1
1
1
1
1
1
1
1
1
1
1
1
1
1
1
1
1
1
1
1
1
1
1
1
1
1
1
1
1
1
1
1
1
1
1
1
1
1
1
1
1
1
1
1
1
1
1
1
1
1
1
1
1
1
1
1
1
1
1
1
1
1
1
1
1
1
1
1
1
1
1
1
1
1
1
1
1
1
1
1
1
1
1
1
1
1
1
1
1
1
1
1
1
1
1
1
1
1
1
1
1
1
1
1
1
1
1
1
1
1
1
1
1
1
1
1
1
1
1
1
1
1
1
1
1
1
1
1
1
1
1
1
1
1
1
1
1
1
1
1
1
1
1
1
1
1
1
1
1
1
1
1
1
1
1
1
1
1
1
1
1
1
1
1
1
1
1
1
1
1
1
1
1
1
1
1
1
1
1
1
1
1
1
1
1
1
1
1
1
1
1
1
1
1
1
1
1
1
1
1
1
1
1
1
1
1
1
1
1
1
1
1
1
1
1
1
1
1
1
1
1
1
1
1
1
1
1
1
1
1
1
1
1
1
1
1
1
1
1
1
1
1
1
1
1
1
1
1
1
1
1
1
1
1
1
1
1
1
1
1
1
1
1
1
1
1
1
1
1
1
1
1
1
1
1
1
1
1
1
1
1
1
1
1
1
1
1
1
1
1
1
1
1
1
1
1
1
1
1
1
1
1
1
1
1
1
1
1
1
1
1
1
1
1
1
1
1
1
1
1
1
1
1
1
1
1
1
1
1
1
1
1
1
1
1
1
1
1
1
1
1
1
1
1
1
1
1
1
1
1
1
1
1
1
1
1
1
1
1
1
1
1
1
1
1
1
1
1
1
1
1
1
1
1
1
1
1
1
1
1
1
1
1
1
1
1
1
1
1
1
1
1
1
1
1
1
1
1
1
1
1
1
1
1
1
1
1
1
1
1
1
1
1
1
1
1
1
1
1
1
1
1
1
1
1
1
1
1
1
1
1
1
1
1
1
1
1
1
1
1
1
1
1
1
1
1
1
1
1
1
1
1
1
1
1
1
1
1
1
1
1
1
1
1
1
1
1
1
1
1
1
1
1
1
1
1
1
1
1
1
1
1
1
1
1
1
1
1
1
1
1
1
1
1
1
1
1
1
1
1
1
1
1
1
1
1
1
1
1
1
1
1
1
1
1
1
1
1
1
1
1
1
1
1
1
1
1
1
1
1
1
1
1
1
1
1
1
1
1
1
1
1
1
1
1
1
1
1
1
1
1
1
1
1
1
1
1
1
1
1
1
1
1
1
1
1
1
1
1
1
1
1
1
1
1
1
1
1
1
1
1
1
1
1
1
1
1
1
1
1
1
1
1
1
1
1
1
1
1
1
1
1
1
1
1
1
1
1
1
1
1
1
1
1
1
1
1
1
1
1
1
1
1
1
1
1
1
1
1
1
1
1
1
1
1
1
1
1
1
1
1
1
1
1
1
1
1
1
1
1
1
1
1
1
1
1
1
1
1
1
1
1
1
1
1
1
1
1
1
1
1
1
1
1
1
1
1
1
1
1
1
1
1
1
1
1
1
1
1
1
1
1
1
1
1
1
1
1
1
1
1
1
1
1
1
1
1
1
1
1
1
1
1
1
1
1
1
1
1
1
1
1
1
1
1
1
1
1
1
1
1
1
1
1
1
1
1
1
1
1
1
1
1
1
1
1
1
1
1
1
1
1
1
1
1
1
1
1
1
1
1
1
1
1
1
1
1
1
1
1
1
1
1
1
1
1
1
1
1
1
1
1
1
1
1
1
1
1
1
1
1
1
1
1
1
1
1
1
1
1
1
1
1
1
1
1
1
1
1
1
1
1
1
1
1
1
1
1
1
1
1
1
1
1
1
1
1
1
1
1
1
1
1
1
1
1
1
1
1
1
1
1
1
1
1
1
1
1
1
1
1
1
1
1
1
1
1
1
1
1
1
1
1
1
1
1
1
1
1
1
1
1
1
1
1
1
1
1
1
1
1
1
1
1
1
1
1
1
1
1
1
1
1
1
1
1
1
1
1
1
1
1
1
1
1
1
1
1
1
1
1
1
1
1
1
1
1
1
1
1
1
1
1
1
1
1
1
1
1
1
1
1
1
1
1
1
1
1
1
1
1
1
1
1
1
1
1
1
1
1
1
1
1
1
1
1
1
1
1
1
1
1
1
1
1
1
1
1
1
1
1
1
1
1
1
1
1
1
1
1
1
1
1
1
1
1
1
1
1
1
1
1
1
1
1
1
1
1
1
1
1
1
1
1
1
1
1
1
1
1
1
1
1
1
1
1
1
1
1
1
1
1
1
1
1
1
1
1
1
1
1
1
1
1
1
1
1
1
1
1
1
1
1
1
1
1
1
1
1
1
1
1
1
1
1
1
1
1
1
1
1
1
1
1
1
1
1
1
1
1
1
1
1
1
1
1
1
1
1
1
1
1
1
1
1
1
1
1
1
1
1
1
1
1
1
1
1
1
1
1
1
1
1
1
1
1
1
1
1
1
1
1
1
1
1
1
1
1
1
1
1
1
1
1
1
1
1
1
1
1
1
1
1
1
1
1
1
1
1
1
1
1
1
1
1
1
1
1
1
1
1
1
1
1
1
1
1
1
1
1
1
1
1
1
1
1
1
1
1
1
1
1
1
1
1
1
1
1
1
1
1
1
1
1
1
1
1
1
1
1
1
1
1
1
1
1
1
1
1
1
1
1
1
1
1
1
1
1
1
1
1
1
1
1
1
1
1
1
1
1
1
1
1
1
1
1
1
1
1
1
1
1
1
1
1
1
1
1
1
1
1
1
1
1
1
1
1
1
1
1
1
1
1
1
1
1
1
1
1
1
1
1
1
1
1
1
1
1
1
1
1
1
1
1
1
1
1
1
1
1
1
1
1
1
1
1
1
1
1
1
1
1
1
1
1
1
1
1
1
1
1
1
1
1
1
1
1
1
1
1
1
1
1
1
1
1
1
1
1
1
1
1
1
1
1
1
1
1
1
1
1
1
1
1
1
1
1
1
1
1
1
1
1
1
1
1
1
1
1
1
1
1
1
1
1
1
1
1
1
1
1
1
1
1
1
1
1
1
1
1
1
1
1
1
1
1
1
1
1
1
1
1
1
1
1
1
1
1
1
1
1
1
1
1
1
1
1
1
1
1
1
1
VECTORS force double
7.38117 0 -0.518319
-15.5664 0 3.80183
18.5986 0 14.749
-10.3423 0 6.78662
11.6645 0 11.987
-12.9283 0 -0.786451
-2.10857 0 21.1551
6.97779 0 -27.2425
5.24409 0 19.5302
4.12495 0 -5.14826
8.45905 0 -9.81046
-33.6366 0 3.4612
11.0921 0 -3.43236
-13.4768 0 -22.6778
15.4103 0 8.36102
1.23727 0 0.0356525
8.98435 0 4.382
2.75601 0 18.3624
0 0 0
-0.910552 0 13.9338
1.992 0 15.3119
5.37425 0 -14.713
-11.1834 0 -14.2368
-2.45931 0 5.13824
-2.87241 0 9.73821
30.4635 0 33.9441
4.09637 0 1.70196
-5.62897 0 7.52697
26.1153 0 19.5356
-25.3056 0 8.71133
25.3029 0 8.70434
-26.1569 0 19.5533
5.64404 0 7.5055
-4.06511 0 1.706
-30.4915 0 33.963
2.87303 0 9.73842
2.45938 0 5.13876
11.1834 0 -14.2369
-5.37413 0 -14.7131
-1.99226 0 15.3122
0.901024 0 13.9437
0 0 0
-2.73299 0 18.3595
-8.98485 0 4.38281
-1.23506 0 0.0358374
-15.41 0 8.35556
13.4973 0 -22.69
-11.0976 0 -3.43509
33.654 0 3.3936
-8.46209 0 -9.8129
-4.12655 0 -5.15225
-5.24763 0 19.5321
-6.96382 0 -27.2314
2.10796 0 21.1551
12.9269 0 -0.784286
-11.6645 0 11.9878
10.3419 0 6.78682
-18.5986 0 14.7489
15.5664 0 3.80183
-7.38121 0 -0.518286
10.5298 0 -5.43295
-12.2615 0 -41.0246
-25.0156 0 5.58947
14.1677 0 5.1079
3.18885 0 4.01127
18.0464 0 24.9672
-53.5248 0 28.7482
-16.4559 0 -4.91987
20.4892 0 -0.293997
-72.016 0 33.7826
89.849 0 -39.0578
17.4343 0 42.6728
23.6326 0 -29.0217
-36.8347 0 83.3826
48.973 0 -56.2651
-7.7987 0 9.26201
-6.4895 0 -0.285902
8.99825 0 6.48764
26.3345 0 -92.8669
7.79015 0 15.5426
19.5056 0 4.13723
0 0 0
18.0934 0 7.3439
42.2219 0 13.0067
-31.3496 0 -25.3891
2.42204 0 -15.5035
-34.6333 0 -5.13617
-29.5378 0 -27.2138
-94.9129 0 -35.1997
69.2726 0 -9.92856
-69.0999 0 -9.86419
94.7468 0 -35.2241
29.5546 0 -27.2213
34.5946 0 -5.13394
-2.42051 0 -15.5042
31.377 0 -25.4077
-42.1806 0 13.0082
-18.0733 0 7.36505
0 0 0
-19.5057 0 4.13721
-7.77885 0 15.5501
-25.9372 0 -92.9174
-9.01961 0 6.52417
6.50279 0 -0.283386
7.79069 0 9.27769
-48.9905 0 -56.2793
36.8678 0 83.3871
-23.6491 0 -28.9799
-17.4568 0 42.71
-89.8499 0 -39.0575
72.0177 0 33.7845
-20.4863 0 -0.294771
16.4523 0 -4.91961
53.518 0 28.7407
-18.045 0 24.9645
-3.18809 0 4.01002
-14.168 0 5.10791
25.0155 0 5.58917
12.2616 0 -41.0246
-10.5298 0 -5.43301
16.6459 0 31.3282
4.66181 0 19.0022
-2.82377 0 -9.55473
6.71593 0 4.19503
-31.7315 0 -29.5939
10.9259 0 -56.6998
50.0822 0 6.51904
-30.5658 0 12.8644
4.11969 0 -17.034
-6.21328 0 28.9199
-11.4843 0 -18.6367
-6.55342 0 3.09336
-0.987674 0 9.67167
5.49919 0 -14.6843
-0.471707 0 3.16348
-33.2936 0 15.9261
17.966 0 3.58512
9.13816 0 4.6626
-22.4203 0 0.29355
1.68912 0 9.34345
-9.85436 0 15.8279
-11.7182 0 1.02292
-7.18537 0 16.436
8.27312 0 -5.17923
0.96816 0 2.92368
-1.73455 0 24.672
8.32704 0 -3.41966
0.119068 0 6.85205
23.0569 0 52.9353
15.6462 0 -7.81227
-15.6391 0 -7.80152
-23.0835 0 52.8966
0.232627 0 6.69871
-8.31322 0 -3.31548
1.38521 0 24.6803
-0.96446 0 2.93511
-8.41653 0 -5.25645
7.2872 0 16.5336
11.4844 0 1.18644
9.84669 0 15.8128
-1.67455 0 9.35037
22.195 0 0.280673
-9.13484 0 4.67877
-17.9761 0 3.57527
33.2648 0 15.9457
0.470013 0 3.18754
-5.49603 0 -14.6784
0.988723 0 9.67434
6.55608 0 3.09706
11.4844 0 -18.6294
6.21277 0 28.9161
-4.12455 0 -17.032
30.5705 0 12.8615
-50.0828 0 6.51944
-10.9275 0 -56.7006
31.7314 0 -29.5942
-6.71586 0 4.19536
2.82384 0 -9.55462
-4.66193 0 19.0025
-16.6459 0 31.3282
-10.7052 0 -21.6867
39.5396 0 -33.4946
10.8995 0 4.05297
-18.6544 0 7.2373
-25.764 0 23.2793
-12.6207 0 -26.5276
-12.7243 0 -104.309
-19.9487 0 -4.70406
25.8453 0 22.7822
-3.62296 0 1.40431
-5.04372 0 12.0592
-15.4215 0 18.7219
26.8568 0 -4.65356
-3.87438 0 52.6525
-14.3892 0 -47.7171
4.84453 0 -3.31991
5.26206 0 -1.48371
48.3332 0 -32.2907
-4.55885 0 4.01191
-30.8981 0 62.276
-5.46468 0 8.13705
-13.6927 0 -0.939925
29.0861 0 -2.2168
2.23101 0 6.59021
-9.97866 0 -27.6016
-15.2773 0 -21.7687
11.9275 0 -38.6587
0.92248 0 2.11184
-11.5783 0 -0.18914
1.54616 0 -13.8788
-1.55527 0 -13.8883
11.61 0 -0.127874
-1.27631 0 1.93995
-11.0961 0 -38.445
13.8673 0 -20.2643
9.74016 0 -27.3697
-1.88138 0 6.68963
-28.8673 0 -2.40643
13.6986 0 -0.914242
5.0375 0 8.18016
30.9162 0 62.1828
4.59621 0 3.97745
-48.3238 0 -32.289
-5.28648 0 -1.41758
-4.76177 0 -3.45353
14.4189 0 -47.8057
3.82589 0 52.7244
-26.8568 0 -4.65058
15.4129 0 18.7233
5.04378 0 12.0528
3.61954 0 1.40771
-25.8473 0 22.7817
19.9513 0 -4.70378
12.7255 0 -104.307
12.62 0 -26.526
25.7661 0 23.281
18.6554 0 7.23701
-10.8994 0 4.05263
-39.5394 0 -33.4949
10.7048 0 -21.6867
-29.4349 0 19.7154
-120.655 0 29.6532
89.6139 0 -38.1654
45.1128 0 8.93611
-5.47477 0 31.226
2.53262 0 -3.90974
4.13286 0 43.3895
-1.24485 0 -2.25779
-5.49945 0 3.91194
9.97944 0 3.09008
-10.1389 0 3.01694
3.90968 0 12.2662
-16.7529 0 0.0910505
1.83952 0 -14.7235
16.7028 0 -10.656
8.14029 0 -8.67243
-8.56207 0 7.95393
-5.13583 0 -6.09206
-5.07711 0 11.3547
-22.8454 0 -34.3862
23.9592 0 -5.46418
14.2138 0 7.70043
2.93927 0 1.40819
-7.49287 0 75.4107
32.3323 0 -47.6123
-26.763 0 34.5002
-26.7015 0 0.964515
-7.47577 0 2.58341
-6.86185 0 12.1958
-102.534 0 -2.67031
102.533 0 -2.67385
6.72685 0 12.0501
8.0829 0 2.50737
25.8426 0 1.42656
26.4433 0 34.1666
-33.5363 0 -49.069
10.1061 0 75.3123
-2.85284 0 1.24828
-14.2165 0 7.66267
-23.8167 0 -5.37732
22.5874 0 -34.8507
5.07526 0 11.3994
5.15135 0 -6.06679
8.60441 0 7.9211
-8.20644 0 -8.67885
-16.6901 0 -10.6536
-1.83257 0 -14.7364
16.7019 0 0.0774443
-3.89818 0 12.2465
10.145 0 3.01864
-9.97531 0 3.07971
5.49043 0 3.91376
1.2488 0 -2.25748
-4.13254 0 43.3886
-2.53165 0 -3.91453
5.47398 0 31.2262
-45.1144 0 8.93608
-89.6139 0 -38.1656
120.655 0 29.6534
29.4352 0 19.7162
5.9998 0 9.38779
24.8357 0 -15.9595
47.9713 0 8.16982
-34.0179 0 8.13291
3.42124 0 -3.63407
12.5421 0 0.967818
-28.0271 0 1.07417
13.7075 0 46.7236
48.2217 0 -56.9682
10.6312 0 -46.1019
50.3577 0 10.8365
-19.9449 0 -13.4959
-49.5338 0 15.2186
-20.8343 0 -33.3552
-2.84379 0 10.7519
-19.4206 0 6.74755
-0.083478 0 -35.3635
-0.284913 0 8.64664
-4.01409 0 56.711
-8.44352 0 32.5161
27.9482 0 -22.5814
-71.425 0 -65.1839
0.046678 0 10.5094
3.96655 0 -18.4452
7.56762 0 13.1434
9.39834 0 -11.5201
3.7505 0 8.47011
-7.52468 0 -7.1661
40.4429 0 8.38891
-4.49268 0 12.3373
4.45856 0 12.4093
-40.1917 0 8.30621
7.33689 0 -7.243
-3.81203 0 8.40608
-9.36547 0 -11.5519
-7.54648 0 13.1104
-3.91552 0 -18.7291
-0.128553 0 10.335
71.2846 0 -64.9314
-27.3734 0 -22.5293
8.39307 0 32.823
4.06511 0 56.7703
0.301021 0 8.6622
-0.466068 0 -35.5412
19.5029 0 6.771
2.83648 0 10.7491
21.0673 0 -33.5393
49.5309 0 15.437
20.0023 0 -13.527
-50.3245 0 10.8314
-10.621 0 -46.0319
-48.2108 0 -56.9406
-13.698 0 46.7206
28.0238 0 1.07605
-12.5416 0 0.968244
-3.42105 0 -3.63426
34.0178 0 8.13347
-47.9709 0 8.1698
-24.8368 0 -15.9591
-5.99938 0 9.38654
8.88572 0 18.4069
-26.5433 0 -4.23755
-16.3043 0 -0.639273
15.8521 0 3.4532
-4.03617 0 -4.76612
-4.54504 0 -40.4993
24.4961 0 26.8332
-136.469 0 -102.841
-23.0339 0 37.2547
-19.8251 0 -0.557473
16.2394 0 -8.58538
-5.90502 0 -21.469
16.8708 0 23.4467
19.1898 0 29.4233
12.5121 0 -6.97787
-14.7808 0 6.39759
-16.3707 0 -52.7943
-67.8919 0 2.60039
-22.0414 0 -7.54942
-65.2977 0 -57.3593
-14.0682 0 -28.6446
63.1679 0 74.3103
-5.44733 0 2.33167
-116.558 0 -98.6657
-44.7688 0 -12.454
41.0805 0 13.2164
-19.7563 0 15.0327
-9.93836 0 -19.0698
-5.21934 0 11.542
2.55465 0 6.57463
1.40107 0 6.91823
1.59711 0 11.5878
9.93783 0 -19.1751
19.7518 0 15.1087
-40.8937 0 12.729
44.4739 0 -12.4087
117.492 0 -100.178
5.32315 0 2.84383
-63.1258 0 74.2493
14.0995 0 -28.5365
64.9793 0 -57.1539
22.0523 0 -7.55529
67.6287 0 2.64076
16.5122 0 -55.2727
14.7888 0 6.77823
-12.5329 0 -6.95776
-19.3623 0 29.6332
-16.9735 0 23.2758
5.82951 0 -21.4583
-16.2305 0 -8.57352
19.7888 0 -0.554616
23.0248 0 37.187
136.448 0 -102.899
-24.4957 0 26.8358
4.54564 0 -40.5018
4.03623 0 -4.76575
-15.8514 0 3.4536
16.3046 0 -0.640428
26.5425 0 -4.23838
-8.88492 0 18.4072
-32.5722 0 -18.509
-35.7799 0 -4.62304
-43.2618 0 24.1292
0.736709 0 30.0038
85.1203 0 -51.4269
-18.1309 0 -1.14353
7.1262 0 57.552
6.76779 0 -18.0299
71.3969 0 134.95
3.20213 0 -5.88413
-3.10352 0 -2.41423
-4.25934 0 9.9804
-4.54061 0 -8.76637
-9.85064 0 0.320096
-33.628 0 -3.7588
-5.83157 0 -18.2125
5.10134 0 10.9957
26.6461 0 5.32746
52.7204 0 14.321
15.2103 0 -1.29296
33.2003 0 57.8295
62.0943 0 -0.483157
8.2149 0 3.0459
-6.74245 0 -18.9469
116.277 0 111.083
1.11802 0 -25.0878
-9.2038 0 11.8943
7.92919 0 -4.02298
-3.17877 0 -8.49355
-23.8945 0 1.13816
23.729 0 1.425
3.83545 0 -8.83783
-8.70254 0 -4.53938
8.5474 0 11.4635
-0.816987 0 -24.5421
-117.18 0 112.69
7.71303 0 -20.0757
-8.15693 0 3.20197
-62.2357 0 -0.549707
-32.9662 0 57.6967
-15.3295 0 -1.42366
-52.446 0 14.1895
-26.0907 0 5.58045
-4.77719 0 11.2449
6.06913 0 -18.2274
33.5835 0 -3.74318
9.86884 0 0.332617
4.54232 0 -8.74709
4.25855 0 9.96024
3.09394 0 -2.40105
-3.19418 0 -5.8822
-71.4139 0 134.935
-6.7778 0 -18.0733
-7.12867 0 57.5532
18.1307 0 -1.14568
-85.1205 0 -51.4267
-0.739392 0 30.0075
43.262 0 24.1276
35.7775 0 -4.62119
32.5737 0 -18.5086
-11.9485 0 -1.70676
18.2488 0 15.5804
46.5394 0 -7.06614
24.3116 0 12.1254
16.4673 0 16.6303
-14.9623 0 3.08252
-39.8633 0 -37.3553
63.3793 0 22.8516
-66.2807 0 -37.8879
31.2663 0 27.9076
14.2107 0 -25.177
-14.7446 0 0.307944
-2.09252 0 5.76515
-23.314 0 -29.2236
14.6382 0 1.3567
41.8191 0 -5.05163
-6.97923 0 -20.6022
-64.2844 0 57.6182
0.407508 0 -19.9151
15.4021 0 -20.3551
-7.05299 0 -6.1555
-46.969 0 13.6349
25.9691 0 -19.3105
20.4577 0 -9.58819
-6.03587 0 13.2256
17.5509 0 11.7965
0.502517 0 -1.5961
-1.83732 0 2.05309
-3.48625 0 1.81177
-0.438707 0 8.42788
2.00438 0 8.43791
3.63032 0 2.42606
0.0413366 0 1.72573
0.805107 0 -1.64675
-18.3841 0 13.0911
6.12841 0 13.0525
-20.6719 0 -10.0585
-25.3469 0 -19.2185
46.8543 0 13.4166
7.14583 0 -6.17236
-15.524 0 -20.4115
-0.759577 0 -20.842
63.9829 0 59.2949
7.07402 0 -20.6419
-41.8069 0 -5.09076
-14.5893 0 1.3775
23.2834 0 -29.2797
2.12683 0 5.77065
14.7224 0 0.32907
-14.1525 0 -25.1112
-31.2445 0 27.8612
66.2848 0 -37.836
-63.4007 0 22.8906
39.9293 0 -37.3517
14.924 0 3.07459
-16.4664 0 16.6308
-24.3126 0 12.1269
-46.5364 0 -7.06853
-18.2493 0 15.5792
11.9486 0 -1.70617
11.1384 0 1.41962
14.1665 0 -7.05921
-27.1893 0 -23.7399
-54.5953 0 39.7704
45.3462 0 -49.6747
0.531687 0 -6.89603
3.33581 0 -9.2733
16.81 0 -4.00094
-0.940897 0 9.44868
10.0615 0 4.11614
-28.243 0 33.9984
41.1912 0 9.04307
16.7521 0 5.60037
-52.8829 0 -58.6677
23.4441 0 36.1277
26.0281 0 1.2076
-26.4809 0 48.6036
-1.74074 0 12.449
-7.21762 0 7.92552
-30.8799 0 34.2047
3.11918 0 0.806875
0.214647 0 8.81716
-8.29443 0 -12.3072
8.95384 0 -7.32623
-5.96074 0 7.69141
-29.2064 0 34.2037
42.8023 0 -13.2973
6.73768 0 -6.07933
-3.62309 0 -12.5864
-10.7297 0 6.89543
10.3816 0 6.30317
2.84099 0 -12.4501
-9.15133 0 -2.65395
-42.4763 0 -13.6293
30.1143 0 34.3446
5.81063 0 7.8782
-8.80717 0 -7.3972
8.18629 0 -12.3667
0.709475 0 10.5619
-3.08813 0 1.175
31.3827 0 33.6461
7.80519 0 9.29763
1.7326 0 12.4322
26.5857 0 48.6205
-26.1679 0 1.1979
-23.5108 0 36.1252
52.9528 0 -58.6984
-16.7204 0 5.52148
-41.2279 0 9.0537
28.1908 0 33.9547
-10.0518 0 4.11532
0.940091 0 9.46321
-16.806 0 -3.99295
-3.33901 0 -9.27695
-0.526973 0 -6.89162
-45.3457 0 -49.6749
54.5958 0 39.7677
27.1897 0 -23.7414
-14.1664 0 -7.05987
-11.1377 0 1.41971
16.2733 0 6.37908
21.4955 0 4.25512
-0.780505 0 8.56141
-1.84594 0 4.57995
20.5524 0 -19.6825
14.3486 0 -27.8894
-15.6785 0 34.7565
-3.63351 0 -4.73779
-3.05466 0 -13.0199
-19.0612 0 -1.16908
13.1545 0 -15.4281
-42.0343 0 7.27107
32.541 0 -16.3179
25.0996 0 45.5326
15.6281 0 0.870806
12.8914 0 19.9936
8.43024 0 -14.2125
-12.8978 0 -20.4935
7.16617 0 -73.5151
22.8433 0 -4.36957
113.906 0 14.4427
-2.15708 0 -5.00811
-6.53703 0 7.59857
7.50627 0 1.28694
-1.98355 0 9.60653
19.7404 0 -21.5883
-3.95341 0 -5.17448
20.6879 0 18.2687
25.7716 0 -10.7429
-84.1318 0 -9.36047
85.0854 0 -8.82419
-25.3097 0 -11.1558
-19.9767 0 16.4505
3.65849 0 -4.97216
-20.1302 0 -21.8341
2.09609 0 9.57619
-8.49594 0 -0.246177
6.49757 0 7.61154
2.18689 0 -5.11425
-114.706 0 14.2478
-22.9675 0 -4.33934
-7.24904 0 -73.4994
13.1088 0 -20.8834
-8.41362 0 -14.1488
-12.877 0 19.9764
-15.5502 0 0.839176
-25.1668 0 45.6015
-32.5546 0 -16.3022
42.0307 0 7.30028
-13.1547 0 -15.411
19.0555 0 -1.17563
3.04276 0 -13.024
3.63417 0 -4.73889
15.675 0 34.7551
-14.3481 0 -27.8901
-20.5577 0 -19.6844
1.84577 0 4.58181
0.779994 0 8.56039
-21.4952 0 4.25617
-16.2744 0 6.37844
14.9101 0 8.22923
-2.72552 0 6.08233
-15.2318 0 1.55054
-15.9728 0 -1.95413
-21.0999 0 30.7101
7.21626 0 38.9052
11.3719 0 -3.58552
14.5681 0 -64.0933
-0.196813 0 -0.80298
3.04321 0 -38.5427
11.3028 0 16.8395
-4.07028 0 17.3873
-7.7258 0 -2.52204
-14.138 0 -11.5574
10.8587 0 -20.4673
-12.977 0 3.64889
-31.5729 0 -5.63311
0.70189 0 25.1711
5.53034 0 -12.9701
-0.976362 0 -4.93937
5.26791 0 0.315097
-6.12191 0 -6.50875
-0.0571203 0 -8.29308
-2.77943 0 19.5216
-13.5058 0 -3.22336
-21.2655 0 9.26972
4.64593 0 -9.20191
-33.2243 0 -11.0733
-33.5905 0 11.0914
10.4142 0 -10.8213
-8.5764 0 -8.17373
32.5053 0 10.3513
32.6881 0 -11.0155
-4.58807 0 -9.28845
21.6219 0 9.30787
13.194 0 -2.84373
3.17587 0 19.1232
-0.0682223 0 -8.22918
6.09989 0 -6.52854
-5.27838 0 0.37513
0.531413 0 -4.68172
-5.6101 0 -12.987
-0.716982 0 25.1202
31.6274 0 -5.71458
12.8668 0 3.71987
-10.8651 0 -20.4833
14.0779 0 -11.4614
7.66945 0 -2.58547
4.03261 0 17.4131
-11.3159 0 16.847
-3.01207 0 -38.6056
0.19532 0 -0.802588
-14.5903 0 -64.0713
-11.3682 0 -3.5854
-7.20783 0 38.9056
21.0928 0 30.7094
15.9783 0 -1.94807
15.2311 0 1.55017
2.72513 0 6.08265
-14.9114 0 8.23209
6.0725 0 -6.57503
0.680588 0 -4.15954
-18.1405 0 -21.3477
-16.8066 0 6.27007
18.6806 0 21.8127
-93.0407 0 -99.1795
-8.31239 0 -19.1617
-24.707 0 64.0578
93.0216 0 15.3217
-1.87752 0 14.3795
33.609 0 -8.52298
9.70594 0 -66.6966
-38.2083 0 1.85519
24.3962 0 4.16036
16.4612 0 25.5117
-1.97694 0 -14.3837
-9.74312 0 4.43774
14.6278 0 2.87817
-15.6869 0 18.6012
27.9612 0 1.73882
16.8482 0 6.82766
7.54611 0 -4.40103
-20.7609 0 -40.0279
0.389043 0 2.32994
1.6543 0 -18.0903
8.10518 0 24.95
-17.7895 0 -15.9114
4.40267 0 -10.5769
-31.841 0 -45.6431
62.6097 0 33.607
-58.7474 0 31.9308
29.0109 0 -44.1995
-4.3214 0 -10.4524
17.8817 0 -15.8128
-8.30775 0 24.8376
-1.87546 0 -17.8524
-0.00729361 0 2.3135
20.6158 0 -40.1396
-7.48027 0 -4.48597
-16.8271 0 6.83831
-28.4187 0 2.28042
15.8895 0 18.7443
-14.6363 0 2.99932
9.78517 0 4.34884
2.00511 0 -14.406
-16.4662 0 25.5042
-24.0889 0 4.2774
37.9423 0 1.93271
-9.76639 0 -67.1376
-33.6189 0 -8.49731
1.90278 0 14.3712
-92.9673 0 15.2821
24.7048 0 64.0474
8.31178 0 -19.1647
93.0085 0 -99.148
-18.6781 0 21.8127
16.8048 0 6.27053
18.1397 0 -21.3455
-0.677303 0 -4.16259
-6.07268 0 -6.57462
-29.6784 0 14.4699
14.7636 0 -4.62706
44.009 0 3.96163
-14.6191 0 34.2482
34.565 0 -23.7829
-0.554328 0 -58.9226
12.4398 0 58.0104
23.8215 0 14.168
-2.45147 0 -3.42997
-73.3946 0 21.2038
41.098 0 25.4122
-11.4849 0 51.4256
22.4586 0 -2.91233
14.2901 0 8.81204
2.05218 0 3.92726
15.4433 0 6.04257
7.27436 0 48.2451
-29.4705 0 -37.9723
11.7224 0 14.2673
10.5744 0 -18.936
11.1318 0 6.88964
2.72666 0 8.07914
7.6839 0 3.39076
1.90449 0 51.1812
-11.7918 0 -4.8128
-1.94617 0 -16.5652
31.8044 0 -27.7586
2.93248 0 5.18978
14.204 0 1.33762
-2.44411 0 15.239
0.614829 0 14.5156
-14.4052 0 0.948104
-2.85209 0 5.06289
-31.8613 0 -27.9377
2.1311 0 -16.8853
11.9949 0 -4.84638
-1.93087 0 51.2693
-7.73427 0 3.41899
-2.90695 0 8.13483
-11.0177 0 6.79432
-10.2838 0 -18.331
-11.4961 0 14.241
30.3153 0 -38.6784
-7.14177 0 49.4149
-15.4004 0 6.03389
-2.0773 0 3.98001
-14.2174 0 8.76219
-22.5045 0 -2.90581
11.5914 0 51.8453
-41.0905 0 25.4205
73.3743 0 21.2248
2.4446 0 -3.42817
-23.8373 0 14.1922
-12.4328 0 58.0234
0.552781 0 -58.9088
-34.5722 0 -23.7813
14.6185 0 34.253
-44.0107 0 3.96206
-14.7642 0 -4.62917
29.6808 0 14.4709
-21.0845 0 5.4169
47.3316 0 -18.2095
11.5271 0 -94.4982
-5.06035 0 -2.37387
-4.3447 0 -14.0157
-2.16753 0 53.9609
-28.5739 0 13.2199
-4.75766 0 -40.4813
-29.9647 0 20.9172
39.4692 0 -4.51835
2.58837 0 5.63235
-13.0542 0 8.99055
11.2669 0 8.62721
9.57909 0 -25.8011
-14.386 0 0.270928
-16.367 0 1.34342
-12.1016 0 -3.79418
-37.762 0 -22.7997
-46.2677 0 -16.8291
-7.0386 0 29.2317
21.1493 0 -26.9178
-160.366 0 62.7633
147.946 0 -51.5481
12.3561 0 4.94989
11.8731 0 0.894218
-21.4414 0 2.96564
-25.095 0 36.5983
7.73113 0 -27.7894
-16.0018 0 -7.08529
-8.06486 0 1.41441
8.08759 0 0.179973
16.0126 0 -7.33699
-7.66703 0 -28.2331
25.3821 0 36.6749
21.1278 0 3.43816
-12.0215 0 0.980749
-12.1477 0 5.1312
-147.801 0 -51.3061
160.054 0 62.5492
-21.1433 0 -26.6682
6.62881 0 28.3509
45.583 0 -17.178
37.9824 0 -23.4987
12.1431 0 -3.96781
16.4148 0 1.387
14.4494 0 0.302184
-9.50209 0 -25.8172
-11.5143 0 8.67336
13.2437 0 8.96212
-2.58268 0 5.63082