# vtk DataFile Version 3.0
SiWiRVisFile
ASCII
DATASET UNSTRUCTURED_GRID
POINTS 1600 DOUBLE
77.3073 100 74.5138
78.5206 100 74.7766
79.5683 100 75.3477
81.2769 100 74.9426
82.4352 100 75.083
83.5549 100 75.2134
85.023 100 75.3764
86.2028 100 75.6589
87.203 100 76.1792
87.5185 100 75.1469
90.1282 100 75.9043
91.255 100 75.854
90.3357 100 74.6583
91.2249 100 73.5313
90.4589 100 72.4094
93.1897 100 69.343
94.1844 100 68.8644
96.2966 100 69.1139
95.2293 100 66.7125
98.3495 100 68.3019
103.821 100 57.6497
103.423 100 60.0165
104.168 100 59.2161
105.976 100 58.6962
104.712 100 58.2959
107.491 100 58.0646
109.397 100 56.4095
109.405 100 55.0083
110.797 100 56.0734
111.476 100 55.1803
113.016 100 55.1803
113.695 100 56.0734
115.088 100 55.0083
115.096 100 56.4095
117.001 100 58.0646
119.781 100 58.2959
118.517 100 58.6962
120.324 100 59.2161
121.07 100 60.0165
120.671 100 57.6497
126.143 100 68.3019
129.263 100 66.7125
128.196 100 69.1139
130.308 100 68.8644
131.303 100 69.343
134.034 100 72.4094
133.268 100 73.5313
134.157 100 74.6583
133.237 100 75.854
134.364 100 75.9043
136.974 100 75.1469
137.289 100 76.1792
138.29 100 75.6589
139.469 100 75.3764
140.938 100 75.2134
142.057 100 75.083
143.216 100 74.9426
144.924 100 75.3477
145.972 100 74.7766
147.185 100 74.5138
77.723 100 75.5726
78.7326 100 76.0285
80.5962 100 75.7745
81.6882 100 76.0181
82.8182 100 76.2043
84.2994 100 76.2449
85.3511 100 76.452
86.374 100 76.8363
87.4769 100 77.2418
88.7446 100 77.3071
90.014 100 76.9611
91.6421 100 76.8779
91.7407 100 74.8095
92.3232 100 73.5215
92.9619 100 72.6491
91.9314 100 72.3769
94.8514 100 69.903
97.3171 100 68.7063
98.2747 100 69.3632
100.201 100 68.493
102.974 100 58.7447
100.097 100 63.8558
104.155 100 64.3256
109.556 100 58.7322
106.252 100 57.6465
106.964 100 59.0318
108.5 100 58.825
109.181 100 57.5888
110.352 100 56.9969
111.657 100 56.5916
112.835 100 56.5917
114.141 100 56.9968
115.312 100 57.5888
115.993 100 58.825
117.529 100 59.0318
118.24 100 57.6465
114.936 100 58.7322
120.337 100 64.3257
124.395 100 63.8558
121.518 100 58.7447
124.291 100 68.493
126.218 100 69.3632
127.175 100 68.7063
129.641 100 69.903
132.561 100 72.3769
131.53 100 72.6491
132.169 100 73.5215
132.752 100 74.8095
132.85 100 76.8779
134.478 100 76.9611
135.748 100 77.3071
137.015 100 77.2418
138.118 100 76.8363
139.141 100 76.452
140.193 100 76.2449
141.674 100 76.2043
142.804 100 76.0181
143.896 100 75.7745
145.76 100 76.0285
146.769 100 75.5726
77.7954 100 76.679
78.9098 100 77.2417
79.7778 100 76.479
80.7401 100 76.8622
81.8848 100 77.1725
83.4808 100 77.0766
84.5508 100 77.3085
85.6531 100 77.6519
86.7763 100 78.1021
88.0779 100 78.2002
89.138 100 78.3194
90.4115 100 78.7191
91.5162 100 78.2614
92.4162 100 75.888
94.0051 100 72.9805
94.5956 100 71.9877
95.042 100 71.0012
95.9952 100 70.5661
97.1852 100 69.8709
99.3481 100 69.1433
101.672 100 68.0836
103.295 100 65.0516
105.111 100 65.2911
106.038 100 64.6244
106.533 100 62.0187
107.829 100 64.6423
107.95 100 63.5217
106.979 100 63.9181
110.491 100 58.1494
111.648 100 57.7323
112.844 100 57.7323
114.001 100 58.1494
117.513 100 63.9185
116.542 100 63.522
116.663 100 64.6426
117.959 100 62.0186
118.455 100 64.6238
119.381 100 65.2913
121.198 100 65.0516
122.82 100 68.0834
125.144 100 69.1433
127.307 100 69.8709
128.497 100 70.5661
129.45 100 71.0013
129.897 100 71.9877
130.487 100 72.9806
132.076 100 75.8879
132.976 100 78.2614
134.081 100 78.7191
135.354 100 78.3194
136.415 100 78.2002
137.716 100 78.1021
138.839 100 77.6519
139.942 100 77.3085
141.012 100 77.0766
142.608 100 77.1725
143.752 100 76.8622
144.715 100 76.479
145.583 100 77.2417
146.697 100 76.679
77.9172 100 77.761
78.8406 100 78.3298
79.9023 100 77.6434
80.9773 100 77.904
82.702 100 77.8633
83.7115 100 78.1702
84.8227 100 78.4322
85.9901 100 78.8437
87.2407 100 79.0486
88.5132 100 79.2014
89.5405 100 79.4259
90.5594 100 79.8429
91.5327 100 79.3923
93.3235 100 75.0993
93.4686 100 73.9183
95.4536 100 74.085
95.2901 100 72.8571
95.8617 100 71.7139
96.9311 100 71.11
98.0027 100 70.5858
99.0875 100 70.3346
101.199 100 69.1516
104.24 100 65.9542
104.821 100 66.9109
105.716 100 66.277
106.574 100 65.6239
108.773 100 66.0412
109.759 100 65.4775
109.131 100 63.7256
111.303 100 59.0903
113.189 100 59.0903
115.36 100 63.7255
114.733 100 65.4775
115.72 100 66.0412
117.919 100 65.6235
118.777 100 66.2769
119.672 100 66.911
120.252 100 65.9542
123.293 100 69.1515
125.405 100 70.3346
126.49 100 70.5859
127.561 100 71.11
128.631 100 71.7139
129.202 100 72.857
129.039 100 74.085
131.024 100 73.9183
131.169 100 75.0993
132.96 100 79.3923
133.933 100 79.8429
134.952 100 79.4259
135.979 100 79.2014
137.252 100 79.0486
138.502 100 78.8437
139.67 100 78.4322
140.781 100 78.1702
141.79 100 77.8633
143.515 100 77.904
144.59 100 77.6434
145.652 100 78.3298
146.575 100 77.761
77.7321 100 78.9292
78.8835 100 79.4029
79.8254 100 78.832
81.877 100 78.6581
82.9142 100 78.9091
83.972 100 79.3554
85.1684 100 79.6059
86.4059 100 79.9066
87.712 100 80.0619
88.8276 100 80.361
89.6281 100 81.1869
91.4907 100 80.5643
92.5203 100 78.8216
94.8605 100 76.4809
94.4166 100 74.4326
96.1852 100 75.1438
96.6032 100 73.7979
96.5628 100 72.6812
97.8916 100 72.0555
98.9273 100 71.5012
100.414 100 69.8595
103.059 100 69.9484
105.969 100 67.332
107.251 100 67.0306
107.684 100 65.71
108.315 100 67.0005
109.467 100 67.1864
110.505 100 67.5303
108.994 100 64.7699
111.44 100 61.0532
113.052 100 61.0532
115.499 100 64.7699
113.988 100 67.5303
115.026 100 67.1862
116.177 100 67.0005
116.809 100 65.7098
117.241 100 67.0303
118.524 100 67.3322
121.434 100 69.9485
124.078 100 69.8596
125.565 100 71.5012
126.601 100 72.0554
127.93 100 72.6811
127.889 100 73.7979
128.307 100 75.1438
130.076 100 74.4325
129.632 100 76.4809
131.972 100 78.8216
133.002 100 80.5643
134.864 100 81.1869
135.665 100 80.361
136.78 100 80.0619
138.087 100 79.9066
139.324 100 79.6059
140.52 100 79.3554
141.578 100 78.9091
142.615 100 78.6581
144.667 100 78.832
145.609 100 79.4029
146.76 100 78.9292
77.9463 100 80.0005
78.8871 100 80.5807
79.8303 100 79.9596
80.9031 100 79.3046
82.0345 100 79.9395
83.1152 100 80.0814
84.1838 100 80.4354
85.2635 100 80.7327
86.2738 100 81.0279
87.3896 100 81.0247
88.4733 100 81.4284
90.6938 100 81.4976
92.5263 100 80.9428
93.7084 100 78.9005
94.3432 100 77.36
95.0847 100 75.4196
97.4336 100 75.6532
97.5654 100 74.2825
98.4353 100 73.1483
99.5081 100 72.763
100.041 100 71.1122
101.856 100 69.942
104.203 100 69.9587
105.341 100 69.9533
106.008 100 68.7205
107.773 100 68.0839
108.863 100 68.1692
109.885 100 68.4948
111.656 100 67.6054
111.458 100 66.5844
113.035 100 66.5843
112.836 100 67.6052
114.607 100 68.4952
115.629 100 68.1689
116.719 100 68.0842
118.483 100 68.7204
119.152 100 69.9535
120.29 100 69.9586
122.637 100 69.9419
124.451 100 71.112
124.984 100 72.7629
126.057 100 73.1483
126.927 100 74.2825
127.059 100 75.6534
129.408 100 75.4196
130.149 100 77.36
130.784 100 78.9005
131.966 100 80.9428
133.799 100 81.4976
136.019 100 81.4284
137.103 100 81.0247
138.219 100 81.0279
139.229 100 80.7327
140.309 100 80.4354
141.377 100 80.0814
142.458 100 79.9395
143.589 100 79.3046
144.662 100 79.9596
145.605 100 80.5807
146.546 100 80.0005
77.8324 100 81.1679
78.6418 100 81.9216
79.9382 100 80.9979
80.8413 100 80.3876
82.2225 100 81.1996
83.2361 100 81.2101
84.4428 100 81.6003
85.4544 100 81.7733
86.9734 100 82.0512
88.1784 100 82.5161
89.3349 100 82.2101
91.7607 100 81.672
92.49 100 82.4129
94.5577 100 79.9366
95.8165 100 78.4304
96.2819 100 76.567
97.3114 100 76.7561
98.4782 100 74.9506
99.0803 100 74.0539
100.594 100 72.1064
101.227 100 70.8397
102.541 100 70.9353
104.697 100 71.0289
106.495 100 69.725
107.537 100 69.2337
108.953 100 69.2656
109.988 100 69.9668
110.939 100 68.7577
109.596 100 71.479
110.823 100 70.8756
113.672 100 70.8725
114.897 100 71.4773
113.553 100 68.7578
114.504 100 69.9668
115.539 100 69.2655
116.955 100 69.2339
117.998 100 69.725
119.795 100 71.0289
121.952 100 70.9354
123.266 100 70.8397
123.899 100 72.1064
125.412 100 74.0541
126.014 100 74.9507
127.181 100 76.7562
128.21 100 76.5669
128.676 100 78.4305
129.935 100 79.9366
132.002 100 82.4129
132.732 100 81.6719
135.158 100 82.2101
136.314 100 82.5161
137.519 100 82.0512
139.038 100 81.7733
140.05 100 81.6003
141.256 100 81.2101
142.27 100 81.1996
143.651 100 80.3876
144.554 100 80.9979
145.851 100 81.9216
146.66 100 81.1679
77.4741 100 82.391
78.4859 100 82.9915
79.7452 100 82.2673
80.6544 100 82.8544
81.0232 100 81.4899
81.845 100 82.5168
83.5236 100 82.4191
84.6616 100 82.837
86.1153 100 82.6807
87.0261 100 83.3963
88.2551 100 83.6476
89.3368 100 83.504
90.2739 100 82.6963
91.0072 100 83.4642
92.2332 100 83.9469
93.6028 100 82.1381
96.6445 100 77.7309
98.4379 100 76.2129
99.9372 100 75.1446
100.455 100 73.8229
101.242 100 72.9835
101.648 100 71.9033
103.595 100 70.8627
105.754 100 70.8892
107.363 100 70.2803
108.761 100 70.4695
107.679 100 71.922
108.884 100 72.3461
109.963 100 72.5536
110.818 100 71.953
113.674 100 71.9522
114.529 100 72.5537
115.609 100 72.3488
116.813 100 71.9214
115.731 100 70.4695
117.13 100 70.2808
118.739 100 70.889
120.897 100 70.8625
122.844 100 71.9033
123.251 100 72.9834
124.037 100 73.8232
124.555 100 75.1451
126.055 100 76.2128
127.848 100 77.7309
130.89 100 82.1382
132.259 100 83.9469
133.485 100 83.4644
134.218 100 82.6963
135.156 100 83.5039
136.237 100 83.6477
137.466 100 83.3964
138.377 100 82.6807
139.831 100 82.837
140.969 100 82.4191
142.647 100 82.5168
143.469 100 81.4899
143.838 100 82.8544
144.747 100 82.2673
146.007 100 82.9915
147.018 100 82.391
77.5255 100 83.5318
78.4396 100 84.0668
79.656 100 83.3694
80.4188 100 84.1616
81.3858 100 83.7091
82.6387 100 83.6107
83.7231 100 83.4421
84.4929 100 84.3745
85.8643 100 83.777
86.8647 100 84.5551
87.8981 100 84.6902
89.0682 100 84.5769
90.0791 100 84.5395
91.2915 100 84.5985
93.3488 100 83.7275
94.562 100 81.2556
96.8301 100 78.8363
97.851 100 78.0059
99.5874 100 76.4369
100.771 100 75.8954
[...]
POINT_DATA 1600
SCALARS mass double
LOOKUP_TABLE default
1
1
1
1
1
1
1
1
1
1
1
1
1
1
1
1
1
1
1
1
1
1
1
1
1
1
1
1
1
1
1
1
1
1
1
1
1
1
1
1
1
1
1
1
1
1
1
1
1
1
1
1
1
1
1
1
1
1
1
1
1
1
1
1
1
1
1
1
1
1
1
1
1
1
1
1
1
1
1
1
1
1
1
1
1
1
1
1
1
1
1
1
1
1
1
1
1
1
1
1
1
1
1
1
1
1
1
1
1
1
1
1
1
1
1
1
1
1
1
1
1
1
1
1
1
1
1
1
1
1
1
1
1
1
1
1
1
1
1
1
1
1
1
1
1
1
1
1
1
1
1
1
1
1
1
1
1
1
1
1
1
1
1
1
1
1
1
1
1
1
1
1
1
1
1
1
1
1
1
1
1
1
1
1
1
1
1
1
1
1
1
1
1
1
1
1
1
1
1
1
1
1
1
1
1
1
1
1
1
1
1
1
1
1
1
1
1
1
1
1
1
1
1
1
1
1
1
1
1
1
1
1
1
1
1
1
1
1
1
1
1
1
1
1
1
1
1
1
1
1
1
1
1
1
1
1
1
1
1
1
1
1
1
1
1
1
1
1
1
1
1
1
1
1
1
1
1
1
1
1
1
1
1
1
1
1
1
1
1
1
1
1
1
1
1
1
1
1
1
1
1
1
1
1
1
1
1
1
1
1
1
1
1
1
1
1
1
1
1
1
1
1
1
1
1
1
1
1
1
1
1
1
1
1
1
1
1
1
1
1
1
1
1
1
1
1
1
1
1
1
1
1
1
1
1
1
1
1
1
1
1
1
1
1
1
1
1
1
1
1
1
1
1
1
1
1
1
1
1
1
1
1
1
1
1
1
1
1
1
1
1
1
1
1
1
1
1
1
1
1
1
1
1
1
1
1
1
1
1
1
1
1
1
1
1
1
1
1
1
1
1
1
1
1
1
1
1
1
1
1
1
1
1
1
1
1
1
1
1
1
1
1
1
1
1
1
1
1
1
1
1
1
1
1
1
1
1
1
1
1
1
1
1
1
1
1
1
1
1
1
1
1
1
1
1
1
1
1
1
1
1
1
1
1
1
1
1
1
1
1
1
1
1
1
1
1
1
1
1
1
1
1
1
1
1
1
1
1
1
1
1
1
1
1
1
1
1
1
1
1
1
1
1
1
1
1
1
1
1
1
1
1
1
1
1
1
1
1
1
1
1
1
1
1
1
1
1
1
1
1
1
1
1
1
1
1
1
1
1
1
1
1
1
1
1
1
1
1
1
1
1
1
1
1
1
1
1
1
1
1
1
1
1
1
1
1
1
1
1
1
1
1
1
1
1
1
1
1
1
1
1
1
1
1
1
1
1
1
1
1
1
1
1
1
1
1
1
1
1
1
1
1
1
1
1
1
1
1
1
1
1
1
1
1
1
1
1
1
1
1
1
1
1
1
1
1
1
1
1
1
1
1
1
1
1
1
1
1
1
1
1
1
1
1
1
1
1
1
1
1
1
1
1
1
1
1
1
1
1
1
1
1
1
1
1
1
1
1
1
1
1
1
1
1
1
1
1
1
1
1
1
1
1
1
1
1
1
1
1
1
1
1
1
1
1
1
1
1
1
1
1
1
1
1
1
1
1
1
1
1
1
1
1
1
1
1
1
1
1
1
1
1
1
1
1
1
1
1
1
1
1
1
1
1
1
1
1
1
1
1
1
1
1
1
1
1
1
1
1
1
1
1
1
1
1
1
1
1
1
1
1
1
1
1
1
1
1
1
1
1
1
1
1
1
1
1
1
1
1
1
1
1
1
1
1
1
1
1
1
1
1
1
1
1
1
1
1
1
1
1
1
1
1
1
1
1
1
1
1
1
1
1
1
1
1
1
1
1
1
1
1
1
1
1
1
1
1
1
1
1
1
1
1
1
1
1
1
1
1
1
1
1
1
1
1
1
1
1
1
1
1
1
1
1
1
1
1
1
1
1
1
1
1
1
1
1
1
1
1
1
1
1
1
1
1
1
1
1
1
1
1
1
1
1
1
1
1
1
1
1
1
1
1
1
1
1
1
1
1
1
1
1
1
1
1
1
1
1
1
1
1
1
1
1
1
1
1
1
1
1
1
1
1
1
1
1
1
1
1
1
1
1
1
1
1
1
1
1
1
1
1
1
1
1
1
1
1
1
1
1
1
1
1
1
1
1
1
1
1
1
1
1
1
1
1
1
1
1
1
1
1
1
1
1
1
1
1
1
1
1
1
1
1
1
1
1
1
1
1
1
1
1
1
1
1
1
1
1
1
1
1
1
1
1
1
1
1
1
1
1
1
1
1
1
1
1
1
1
1
1
1
1
1
1
1
1
1
1
1
1
1
1
1
1
1
1
1
1
1
1
1
1
1
1
1
1
1
1
1
1
1
1
1
1
1
1
1
1
1
1
1
1
1
1
1
1
1
1
1
1
1
1
1
1
1
1
1
1
1
1
1
1
1
1
1
1
1
1
1
1
1
1
1
1
1
1
1
1
1
1
1
1
1
1
1
1
1
1
1
1
1
1
1
1
1
1
1
1
1
1
1
1
1
1
1
1
1
1
1
1
1
1
1
1
1
1
1
1
1
1
1
1
1
1
1
1
1
1
1
1
1
1
1
1
1
1
1
1
1
1
1
1
1
1
1
1
1
1
1
1
1
1
1
1
1
1
1
1
1
1
1
1
1
1
1
1
1
1
1
1
1
1
1
1
1
1
1
1
1
1
1
1
1
1
1
1
1
1
1
1
1
1
1
1
1
1
1
1
1
1
1
1
1
1
1
1
1
1
1
1
1
1
1
1
1
1
1
1
1
1
1
1
1
1
1
1
1
1
1
1
1
1
1
1
1
1
1
1
1
1
1
1
1
1
1
1
1
1
1
1
1
1
1
1
1
1
1
1
1
1
1
1
1
1
1
1
1
1
1
1
1
1
1
1
1
1
1
1
1
1
1
1
1
1
1
1
1
1
1
1
1
1
1
1
1
1
1
1
1
1
1
1
1
1
1
1
1
1
1
1
1
1
1
1
1
1
1
1
1
1
1
1
1
1
1
1
1
1
1
1
1
1
1
1
1
1
1
1
1
1
1
1
1
1
1
1
1
1
1
1
1
1
1
1
1
1
1
1
1
1
1
1
1
1
1
1
1
1
1
1
1
1
1
1
1
1
1
1
1
1
1
1
1
1
1
1
1
1
1
1
1
1
1
1
1
1
1
1
1
1
1
1
1
1
1
1
1
1
1
1
1
1
1
1
1
1
1
1
1
1
1
1
1
1
1
1
1
1
1
1
1
1
1
1
1
1
1
1
1
1
1
1
1
1
1
1
1
1
1
1
1
1
1
1
1
1
1
1
1
1
1
1
1
1
1
1
1
1
1
1
1
1
1
1
1
1
1
1
1
1
1
1
1
1
1
1
1
1
1
1
1
1
1
1
1
1
1
1
1
1
1
1
1
1
1
1
1
1
1
1
1
1
1
1
1
1
1
1
1
1
1
1
1
1
1
1
1
1
1
1
1
1
1
1
1
1
1
1
1
1
1
1
1
1
1
1
1
1
1
1
1
1
1
1
1
1
1
1
1
1
VECTORS force double
13.8771 0 7.02402
-0.7725 0 16.6469
5.08067 0 -10.3527
22.6811 0 -6.9305
-11.2957 0 18.8944
4.14363 0 21.9832
4.06639 0 6.56591
-7.78609 0 12.7459
17.0355 0 -10.5416
-2.40234 0 -13.3648
8.81026 0 -40.8105
0.0951132 0 -17.8378
14.476 0 11.0936
-8.86184 0 -2.11565
12.2421 0 8.43991
-3.49109 0 3.58779
13.1583 0 7.58853
-4.44337 0 17.3601
-0.115677 0 0.238237
15.2115 0 -21.8789
-10.4525 0 6.5343
-10.2216 0 -2.15404
-16.1019 0 6.05566
-58.5349 0 -5.35882
30.3823 0 -14.6942
2.00987 0 -1.89485
5.81516 0 1.48467
2.59113 0 10.139
-71.3593 0 -119.838
5.81918 0 8.92378
-5.81688 0 8.9251
71.3384 0 -119.862
-2.591 0 10.1388
-5.81542 0 1.4841
-2.00917 0 -1.89426
-30.3821 0 -14.694
58.5354 0 -5.35916
16.1018 0 6.05586
10.2214 0 -2.15426
10.4526 0 6.53428
-15.2197 0 -21.8746
0.115673 0 0.238233
4.45671 0 17.3631
-13.1573 0 7.58931
3.49056 0 3.58718
-12.2411 0 8.43977
8.86764 0 -2.11516
-14.4757 0 11.0931
-0.0951462 0 -17.8348
-8.81216 0 -40.8104
2.40197 0 -13.3651
-17.0355 0 -10.5413
7.78624 0 12.746
-4.06626 0 6.56519
-4.14359 0 21.9832
11.2957 0 18.8945
-22.6811 0 -6.93053
-5.08066 0 -10.3527
0.772489 0 16.6469
-13.8771 0 7.02403
-2.8467 0 -9.62345
-9.66019 0 20.15
0.739584 0 -1.14772
3.21261 0 4.95204
-8.78925 0 -17.2936
-41.9703 0 -18.8565
15.3995 0 14.1702
0.983419 0 18.7678
7.38566 0 6.82136
-6.28321 0 -18.4348
-9.00884 0 36.1254
5.35467 0 8.12918
-0.58173 0 0.404729
4.59944 0 15.153
32.3983 0 -1.05623
-33.9764 0 12.8746
3.94281 0 -7.96945
10.0093 0 13.5623
-23.1748 0 53.0868
31.8505 0 0.221906
21.2398 0 6.09803
0 0 0
7.49645 0 11.3292
24.988 0 -11.1103
13.4116 0 -5.71899
45.0759 0 17.2121
-41.9947 0 -10.9161
16.8015 0 5.24556
-26.1732 0 78.8514
97.4403 0 59.0435
-97.4303 0 59.042
26.1813 0 78.8698
-16.8011 0 5.24773
41.9866 0 -10.9166
-45.0766 0 17.2115
-13.4116 0 -5.71884
-24.9719 0 -11.1053
-7.4957 0 11.3179
0 0 0
-21.2398 0 6.09795
-31.8198 0 0.240202
23.2171 0 53.0905
-10.0147 0 13.5604
-3.94333 0 -7.96655
33.9684 0 12.8759
-32.3804 0 -1.04994
-4.61143 0 15.1444
0.580826 0 0.40506
-5.35321 0 8.12617
9.0092 0 36.1255
6.28384 0 -18.4337
-7.38547 0 6.82049
-0.983097 0 18.768
-15.4005 0 14.1709
41.9711 0 -18.8568
8.78932 0 -17.2937
-3.21259 0 4.95199
-0.739641 0 -1.14769
9.66025 0 20.15
2.84668 0 -9.62344
15.4641 0 -5.96691
-25.946 0 -43.161
-76.3208 0 -2.47375
62.7442 0 3.19629
-27.0804 0 -23.997
2.46523 0 -5.03734
19.379 0 23.1897
-7.12307 0 14.439
-9.45618 0 -55.0712
-53.019 0 -5.23978
56.2363 0 12.5501
9.04253 0 -0.353715
-5.6639 0 1.82763
-13.0028 0 -8.86402
34.5045 0 -12.8053
-1.72477 0 16.8918
-42.315 0 -2.76162
25.2971 0 -34.6673
-15.0821 0 -12.5561
-10.0661 0 24.3859
-8.46272 0 11.3625
10.5563 0 7.35021
13.0025 0 -5.26223
6.19891 0 2.85564
0.745591 0 1.57661
13.3469 0 -15.6605
52.175 0 -10.3804
-48.6093 0 23.5238
17.0581 0 -11.389
-5.51054 0 1.841
5.51064 0 1.84857
-17.0664 0 -11.3967
48.6454 0 23.4061
-52.1739 0 -10.3605
-13.5033 0 -15.8285
-0.74451 0 1.57409
-6.15712 0 2.90975
-13.0404 0 -5.34702
-10.548 0 7.35069
8.46494 0 11.3735
9.99556 0 24.3491
15.1032 0 -12.5753
-25.3006 0 -34.6644
42.3179 0 -2.76108
1.7262 0 16.8938
-34.5108 0 -12.804
13.0035 0 -8.86394
5.66431 0 1.82784
-9.0446 0 -0.359356
-56.2356 0 12.5485
53.0167 0 -5.24044
9.45623 0 -55.0704
7.12276 0 14.4387
-19.379 0 23.1902
-2.46524 0 -5.03726
27.0805 0 -23.9971
-62.7441 0 3.19621
76.3207 0 -2.47367
25.9459 0 -43.161
-15.4641 0 -5.96691
-11.1019 0 15.0396
6.81311 0 -4.13321
9.55497 0 12.151
20.4526 0 37.9562
-29.9915 0 -16.2292
60.4924 0 7.11693
2.70269 0 12.4736
-14.1622 0 2.39224
16.3961 0 31.4557
-59.7225 0 32.0704
22.5592 0 6.27413
-9.38238 0 20.4585
15.2031 0 -8.77422
0.541897 0 -10.4507
-41.2953 0 4.61418
21.7763 0 -2.65005
10.1842 0 5.75108
12.8763 0 18.3833
21.6747 0 7.39704
8.5284 0 15.7023
12.2749 0 -7.18243
-25.067 0 -86.965
-10.6039 0 -4.42283
5.31762 0 7.0387
-16.9129 0 -17.7587
10.6818 0 -13.8998
16.414 0 -33.3622
31.7939 0 37.6705
-9.30563 0 -35.9936
-5.85236 0 -17.3419
5.8523 0 -17.343
9.32638 0 -35.773
-31.8646 0 37.755
-16.4071 0 -33.5547
-10.6946 0 -13.9601
16.9106 0 -17.5468
-5.35421 0 7.03006
10.6336 0 -4.41448
25.0853 0 -87.0384
-12.254 0 -7.17616
-8.57228 0 15.7173
-21.6678 0 7.39569
-12.8804 0 18.3838
-10.1839 0 5.74737
-21.794 0 -2.65502
41.2902 0 4.62103
-0.540753 0 -10.4504
-15.205 0 -8.77551
9.38511 0 20.4626
-22.5592 0 6.27695
59.7239 0 32.0714
-16.3957 0 31.4551
14.1624 0 2.39261
-2.70267 0 12.4736
-60.4924 0 7.11695
29.9913 0 -16.2293
-20.4526 0 37.9562
-9.55483 0 12.151
-6.81323 0 -4.13294
11.102 0 15.0395
22.7753 0 -21.8983
-19.6554 0 24.17
24.846 0 -10.0038
-34.4841 0 -5.17241
22.8076 0 61.2448
10.1063 0 -27.0743
-11.8695 0 -0.60784
2.45626 0 -3.90874
32.504 0 -86.0326
-1.79336 0 -13.7989
-6.7393 0 -33.1611
-21.374 0 -4.81662
0.24166 0 0.870319
46.7635 0 -55.7904
2.96833 0 20.9226
4.46936 0 -5.98934
-31.4742 0 0.813821
-11.4736 0 -12.9287
2.2847 0 -3.74059
-1.30254 0 -6.59538
-33.0955 0 31.4872
-22.0649 0 -29.2525
4.95403 0 15.232
-34.5205 0 -1.39212
6.17074 0 32.1111
21.138 0 41.6692
-24.7342 0 -0.4747
22.218 0 12.3574
-58.2789 0 14.6616
3.69327 0 -1.01205
-3.69326 0 -1.01194
58.3989 0 14.3473
-21.9936 0 12.3471
24.5224 0 -0.496679
-21.0123 0 41.8546
-6.20115 0 32.3967
34.4457 0 -1.36309
-4.90575 0 15.1478
22.0909 0 -29.3152
33.1007 0 31.5233
1.29357 0 -6.59597
-2.28382 0 -3.73996
11.4754 0 -12.9152
31.4385 0 0.818026
-4.46917 0 -5.98959
-2.94318 0 20.9216
-46.7622 0 -55.8323
-0.241309 0 0.870576
21.3755 0 -4.82647
6.7393 0 -33.1613
1.79335 0 -13.7999
-32.5033 0 -86.0296
-2.45595 0 -3.9086
11.8692 0 -0.608438
-10.1063 0 -27.0736
-22.8075 0 61.2449
34.4839 0 -5.17227
-24.8461 0 -10.004
19.6559 0 24.1699
-22.7753 0 -21.8982
-3.51071 0 18.3812
-1.30354 0 7.68078
1.66242 0 -54.0969
-1.35177 0 -20.5844
-25.5116 0 -8.28261
7.90492 0 -1.0188
2.25123 0 17.9144
-45.2334 0 -44.274
45.9691 0 16.2143
-17.3282 0 78.3844
3.74636 0 -0.612251
-13.4463 0 -0.105248
33.1073 0 -14.6477
-3.17993 0 4.59129
-40.2257 0 72.6762
2.98005 0 -31.278
2.60194 0 -16.138
24.5099 0 13.455
-8.26004 0 -8.94531
5.7156 0 -0.269359
-1.53292 0 -12.237
60.7791 0 54.739
11.0875 0 -0.29728
-27.6467 0 -67.1665
-0.0923803 0 -2.2993
-10.8716 0 -8.48659
-12.9954 0 -29.2087
-0.697383 0 3.09521
9.47857 0 58.6382
-12.4584 0 -42.9436
12.4932 0 -42.9331
-9.56657 0 58.6534
0.0269542 0 3.25165
13.3987 0 -29.2735
10.7858 0 -8.51955
0.110937 0 -2.37583
27.8039 0 -67.5007
-11.0779 0 -0.311064
-60.7976 0 54.8031
1.5307 0 -12.2257
-5.72201 0 -0.285075
8.2522 0 -8.92626
-24.4821 0 13.4431
-2.54084 0 -16.1666
-2.97549 0 -31.2731
40.2332 0 72.7099
3.1794 0 4.5909
-33.1102 0 -14.6488
13.4752 0 -0.109268
-3.74592 0 -0.611942
17.3265 0 78.3809
-45.9678 0 16.2154
45.2343 0 -44.2728
-2.25152 0 17.9135
-7.90552 0 -1.01902
25.5118 0 -8.28264
1.35179 0 -20.5839
-1.66307 0 -54.0961
1.30364 0 7.6806
3.51054 0 18.381
5.49361 0 -6.82547
8.38151 0 -16.4398
-3.16307 0 71.3624
30.277 0 6.68812
-104.98 0 -7.5894
113.781 0 4.55008
-82.3067 0 -14.7751
70.2014 0 57.3445
24.3191 0 -10.8704
-1.88617 0 -0.140828
-52.2759 0 19.2283
-48.0221 0 -13.2548
42.2946 0 38.7658
-1.94633 0 6.36342
-24.2967 0 4.26109
-46.4312 0 -9.23951
58.7219 0 25.6467
-15.4064 0 32.7345
23.4936 0 -14.9243
-39.0177 0 -8.40697
-14.8684 0 11.6265
-56.6451 0 9.3012
-11.577 0 -38.5641
-62.0201 0 -26.4302
8.85653 0 -39.3997
7.64726 0 16.4445
-10.1414 0 0.0112964
11.2428 0 -11.6056
12.5427 0 -7.80483
-17.9177 0 -23.7665
17.9627 0 -22.2713
-12.051 0 -6.77408
-10.8918 0 -11.6941
10.1629 0 -0.0130691
-7.62621 0 16.4444
-8.80671 0 -39.0765
61.8807 0 -26.3422
11.5499 0 -38.5199
56.5756 0 9.31222
14.855 0 11.6079
38.9785 0 -8.41136
-23.5233 0 -15.0214
15.4656 0 32.8179
-58.6759 0 25.6516
46.366 0 -9.24072
24.3289 0 4.26048
1.91459 0 6.39204
-42.2614 0 38.7477
47.966 0 -13.2191
52.266 0 19.2341
1.88567 0 -0.135059
-24.3189 0 -10.8696
-70.1998 0 57.3414
82.3046 0 -14.7751
-113.781 0 4.55032
104.98 0 -7.58901
-30.2766 0 6.68781
3.16262 0 71.3622
-8.3816 0 -16.4404
-5.4936 0 -6.82551
24.1492 0 -5.24508
13.8102 0 -11.1656
-19.8199 0 -28.5136
25.7631 0 8.1002
1.75705 0 11.4348
-11.3273 0 4.0312
0.483204 0 -61.3788
4.52404 0 -18.3015
-23.7818 0 19.5395
1.34412 0 -0.287834
-15.0436 0 -0.959796
26.968 0 -19.1113
3.73643 0 -11.8041
27.0071 0 38.8105
-6.45035 0 4.43528
13.2488 0 -1.33245
26.9556 0 -27.7062
-10.1026 0 -22.4429
-11.728 0 -3.51236
-11.5645 0 -3.59135
12.7914 0 7.48902
32.3923 0 -4.65595
43.8552 0 48.8446
60.9664 0 34.5803
55.2516 0 69.9838
8.71633 0 -7.45408
-7.66803 0 -86.9464
-7.30725 0 -39.0969
14.292 0 -63.1858
26.6542 0 0.989198
-26.0643 0 -0.0274548
-16.3491 0 -65.1525
4.50582 0 -42.236
7.68599 0 -87.3702
-8.72491 0 -7.43017
-55.1731 0 69.6498
-61.1553 0 34.9488
-43.8006 0 48.9199
-32.3742 0 -4.64486
-12.7373 0 7.49561
11.5339 0 -3.61848
11.7206 0 -3.43491
10.0418 0 -22.4853
-26.9693 0 -27.7086
-13.2516 0 -1.33113
6.4537 0 4.43579
-26.9503 0 38.7448
-3.77775 0 -11.7616
-26.9706 0 -19.132
15.042 0 -0.968199
-1.34364 0 -0.288118
23.7811 0 19.5399
-4.52377 0 -18.3013
-0.48332 0 -61.3778
11.3273 0 4.03088
-1.75688 0 11.4345
-25.7635 0 8.1
19.8199 0 -28.5136
-13.8103 0 -11.1652
-24.1491 0 -5.24528
-33.5963 0 -22.8132
50.0312 0 36.7734
-24.0182 0 -0.595999
-12.7006 0 18.2957
37.0734 0 -19.6722
-14.7132 0 -1.64625
25.6567 0 51.6993
48.9123 0 -17.8506
12.0076 0 2.72034
-59.3651 0 -8.74083
55.2935 0 20.8748
-114.541 0 21.4709
105.795 0 0.227843
-5.1016 0 6.26292
-0.742449 0 -0.102909
-39.8089 0 -6.26233
29.6444 0 0.682388
-11.6245 0 8.58111
4.68848 0 -2.34599
9.66446 0 14.9743
-2.03971 0 -6.13321
6.76502 0 -6.86066
-20.9051 0 24.5121
0.107308 0 23.4181
-12.0894 0 12.2299
-1.55596 0 1.64991
6.09014 0 103.353
-67.6537 0 100.354
-4.19009 0 35.1149
22.9468 0 -3.66031
-21.9463 0 -3.36633
3.46732 0 34.5429
68.479 0 102.577
-3.61818 0 104.983
2.01503 0 1.71244
12.0831 0 12.2151
-0.26117 0 23.5145
20.8747 0 24.4727
-6.80128 0 -6.93287
2.06533 0 -6.08889
-9.63959 0 14.9275
-4.66768 0 -2.3623
11.6307 0 8.57661
-29.6608 0 0.682814
39.8163 0 -6.20649
0.742499 0 -0.105918
5.09196 0 6.30677
-105.743 0 0.244082
114.496 0 21.474
-55.2915 0 20.8782
59.3615 0 -8.73916
-12.0075 0 2.72058
-48.9136 0 -17.8507
-25.6573 0 51.6968
14.7133 0 -1.64628
-37.0723 0 -19.6717
12.699 0 18.2956
24.0191 0 -0.596296
-50.031 0 36.7735
33.5963 0 -22.8127
0.661126 0 24.7955
9.43209 0 -4.3332
-6.07311 0 -2.42465
-1.44779 0 3.96873
-14.7905 0 -1.16263
-58.4485 0 14.3814
-37.7389 0 -3.42953
5.4009 0 -7.61572
28.5714 0 -13.1776
-1.85704 0 -3.28947
11.955 0 -30.5736
-7.76528 0 1.91168
4.90292 0 -3.78196
-29.109 0 -1.71232
9.89285 0 2.2194
15.4941 0 -7.52217
-11.117 0 -14.8229
29.1452 0 -10.0588
8.31099 0 14.4704
-17.9133 0 -7.5002
-0.456084 0 -42.8501
-6.7803 0 12.5167
-5.30381 0 0.319342
11.7522 0 -28.507
-19.3482 0 10.8194
23.3272 0 17.5007
8.37135 0 13.7268
14.2587 0 -14.9862
-23.8842 0 9.46145
9.70404 0 -9.81689
-9.60337 0 -9.77732
23.9421 0 9.8042
-14.6777 0 -14.7714
-8.66871 0 13.3764
-23.3569 0 17.4464
19.3909 0 10.8538
-11.8284 0 -28.7501
5.30295 0 0.283757
6.76743 0 12.4848
0.422963 0 -42.9481
17.9571 0 -7.5494
-8.33607 0 14.5314
-29.1426 0 -10.0951
11.1308 0 -14.7786
-15.4858 0 -7.6879
-9.83194 0 2.19804
29.0683 0 -1.73143
-4.9042 0 -3.78301
7.76876 0 1.91241
-11.9581 0 -30.5752
1.85912 0 -3.28968
-28.5702 0 -13.1791
-5.40087 0 -7.61566
37.7375 0 -3.42988
58.4501 0 14.3827
14.7905 0 -1.16259
1.44778 0 3.96872
6.0733 0 -2.42447
-9.43173 0 -4.33358
-0.661206 0 24.7954
1.60651 0 -1.07025
-81.3123 0 73.4891
42.1705 0 -8.42483
81.5257 0 -99.7871
-2.64995 0 -3.43534
-35.5513 0 -23.1294
8.91163 0 35.1892
6.63754 0 -11.007
-9.21204 0 26.5842
-3.70822 0 0.633826
7.80784 0 -7.00408
-4.8717 0 -1.63259
0.635383 0 -8.75249
-0.480319 0 -2.78831
-28.026 0 -59.1581
-2.12471 0 -4.41386
4.57229 0 31.7411
-30.662 0 -3.01705
-19.787 0 4.3072
1.87667 0 -17.4566
-33.8504 0 3.69085
1.48162 0 9.27032
-10.8962 0 -22.4821
11.3827 0 -1.21292
-4.84664 0 17.9458
-3.4815 0 -15.5478
-33.972 0 1.42351
-8.01584 0 3.74209
9.3011 0 -17.9669
1.81445 0 -5.71922
-1.79275 0 -5.77894
-9.89406 0 -18.8503
8.35728 0 3.52991
34.9072 0 1.95502
3.41394 0 -15.5623
4.90758 0 18.1945
-11.3444 0 -1.14499
10.8214 0 -22.4075
-1.47262 0 9.14831
33.7926 0 3.99374
-1.88127 0 -17.4584
19.781 0 4.30969
30.6612 0 -3.10072
-4.55656 0 31.8555
2.11391 0 -4.41525
28.0104 0 -59.1258
0.492193 0 -2.79867
-0.638559 0 -8.75802
4.87253 0 -1.63162
-7.80921 0 -7.00208
3.70835 0 0.63364
9.20968 0 26.589
-6.63621 0 -11.0121
-8.9119 0 35.1903
35.5511 0 -23.1297
2.65053 0 -3.43589
-81.526 0 -99.7868
-42.1719 0 -8.42544
81.3127 0 73.4898
-1.60655 0 -1.07038
-6.08223 0 27.9292
-52.845 0 15.7575
5.4843 0 -9.04921
17.0362 0 4.83418
-24.1732 0 -2.17672
26.6005 0 -23.4349
30.3889 0 -30.7963
37.1133 0 -54.2977
1.7084 0 6.9191
24.377 0 18.2102
-2.4285 0 3.16545
14.671 0 35.4147
-7.20428 0 -9.01644
10.8489 0 -5.21008
-5.7634 0 22.7809
47.0053 0 33.9856
-18.7105 0 10.0598
3.20149 0 -0.548009
6.87458 0 -7.21209
-222.216 0 -33.2222
14.002 0 3.7841
31.1866 0 30.2277
-33.0507 0 19.9734
9.83847 0 -24.9332
6.33035 0 15.7718
-8.3397 0 -1.6359
37.4297 0 -37.3263
-43.2803 0 58.4012
51.8568 0 -72.901
-31.7067 0 1.78457
31.7731 0 1.78191
-52.5032 0 -72.9619
43.5734 0 58.3645
-37.6519 0 -37.6195
8.35109 0 -1.66452
-6.29351 0 15.7404
-9.84763 0 -24.9565
33.1209 0 19.9763
-31.1227 0 30.135
-14.0284 0 3.91103
222.135 0 -33.0917
-6.83675 0 -7.19794
-3.20907 0 -0.594045
18.6871 0 10.0949
-47.0032 0 33.9689
5.75643 0 22.7807
-10.8501 0 -5.20674
7.20363 0 -9.01481
-14.6707 0 35.4121
2.42713 0 3.16649
-24.3756 0 18.2122
-1.70671 0 6.91948
-37.1135 0 -54.2994
-30.3898 0 -30.7968
-26.6025 0 -23.4346
24.1744 0 -2.1768
-17.0378 0 4.83469
-5.4843 0 -9.04912
52.8478 0 15.7571
6.08244 0 27.9292
4.5433 0 1.2941
16.3169 0 -4.51172
3.17774 0 8.92199
-9.7569 0 3.99498
-8.79414 0 4.05857
3.84353 0 33.9391
28.7475 0 20.2769
-42.4761 0 65.0042
10.9183 0 2.68317
1.97988 0 -0.526714
-2.76788 0 -32.6424
5.08006 0 -7.58757
-0.453436 0 8.65201
-43.1321 0 -33.4594
-13.6605 0 -59.542
-2.45083 0 -9.95588
-2.43668 0 8.732
-9.09103 0 -5.49552
-103.379 0 -19.5257
89.1874 0 -30.2454
-62.1843 0 0.891074
11.3669 0 -7.02606
-9.39782 0 4.83891
231.668 0 30.3972
11.2963 0 3.92094
-9.62638 0 -16.4538
-13.8509 0 -13.2792
-4.85255 0 -1.4467
0.165228 0 -4.71178
6.43676 0 11.9001
-6.5348 0 11.8591
0.0540906 0 -3.92556
4.7903 0 -1.5045
13.8459 0 -13.3039
9.53387 0 -16.0758
-11.3003 0 3.92982
-231.62 0 30.2536
9.47734 0 4.8275
-11.2138 0 -6.86881
61.8328 0 0.713266
-88.5971 0 -29.9317
102.898 0 -19.9314
9.11007 0 -5.58244
2.4468 0 8.79114
2.46401 0 -9.939
13.6576 0 -59.5829
42.9993 0 -33.4385
0.45232 0 8.64783
-5.07897 0 -7.58682
2.76029 0 -32.6208
-1.98109 0 -0.527661
-10.9193 0 2.68202
42.4769 0 65.0064
-28.7467 0 20.277
-3.84256 0 33.9402
8.79395 0 4.05814
9.75666 0 3.99448
-3.17646 0 8.92203
-16.3172 0 -4.51174
-4.54325 0 1.2942
-4.56653 0 18.0451
7.87055 0 -23.8085
-32.6393 0 6.99211
51.8862 0 4.70234
-11.5377 0 13.9963
-14.7175 0 1.73039
-104.653 0 10.3642
114.08 0 -9.64926
2.42838 0 2.46022
-48.7966 0 -6.16203
51.3072 0 38.3956
-32.2504 0 -5.09786
43.2678 0 6.32594
-45.3274 0 28.0031
25.0868 0 33.4373
13.0084 0 9.36882
6.90515 0 16.8871
3.56733 0 -11.8482
4.51459 0 18.7208
46.9032 0 54.6543
17.3116 0 10.598
-0.850946 0 -17.4644
60.1501 0 23.8099
-13.5492 0 -26.5016
1.1155 0 -5.468
-14.1748 0 53.0266
18.5396 0 -6.23798
3.50642 0 4.19961
-36.9401 0 -2.94518
20.4607 0 -3.88495
-20.684 0 -4.09887
36.1453 0 -2.5188
-3.53887 0 4.21427
-18.5724 0 -6.23138
14.3903 0 53.2558
-1.11504 0 -5.46427
13.4417 0 -26.6596
-60.0352 0 23.7681
0.866479 0 -17.5199
-17.2421 0 10.6245
-47.086 0 54.8235
-4.46825 0 18.7159
-3.571 0 -11.8599
-6.91063 0 16.8829
-13.0164 0 9.3754
-25.1109 0 33.4622
45.3384 0 28.0413
-43.3501 0 6.33626
32.3175 0 -5.08549
-51.2749 0 38.3649
48.7714 0 -6.15338
-2.42823 0 2.4604
-114.072 0 -9.65042
104.645 0 10.3668
14.7181 0 1.73021
11.5378 0 13.9969
-51.8861 0 4.70228
32.6396 0 6.99183
-7.87307 0 -23.8097
4.56774 0 18.0466
-8.79205 0 17.6714
3.43219 0 6.05867
-43.346 0 60.4003
50.9403 0 -104.968
-83.5511 0 -10.6964
68.9176 0 -17.4863
-16.7042 0 -47.2878
-10.6192 0 0.408655
-75.3633 0 -4.59565
23.5093 0 -40.8876
-3.01488 0 3.29426
-17.1649 0 -7.45903
2.16081 0 -29.1111
16.2591 0 -7.34505
52.2869 0 -92.4572
0.438401 0 11.7441
39.4025 0 8.97208
11.923 0 -2.90527
-31.8469 0 -35.9104
-0.665821 0 1.62792
-12.3826 0 -0.837635
25.7604 0 -19.2323
-24.8589 0 26.5436
1.81459 0 5.85908
9.93534 0 -10.0929
-0.455295 0 -4.17388
-21.6569 0 31.2826
2.51871 0 -11.3476
35.2265 0 6.52045
-14.2342 0 -11.6536
14.5152 0 -11.4905
-34.4447 0 6.13875
-2.61556 0 -12.4843
21.74 0 31.0275
0.426601 0 -4.17645
-9.8669 0 -10.0369
-1.88475 0 5.79783
24.9692 0 26.7532
-25.5047 0 -19.0855
12.1232 0 -0.802523
0.603483 0 1.59477
31.8015 0 -35.8471
-11.8785 0 -2.76888
-39.2633 0 8.92958
-0.437996 0 11.7297