# vtk DataFile Version 3.0
SiWiRVisFile
ASCII
DATASET UNSTRUCTURED_GRID
POINTS 1600 DOUBLE
76.809 100 72.5142
75.2352 100 72.5994
76.0928 100 73.3391
78.0419 100 73.1873
79.2046 100 73.6657
80.3102 100 74.1995
81.1563 100 73.4635
82.4793 100 73.6915
83.5013 100 74.3077
83.3203 100 73.0046
92.6179 100 67.0433
91.4825 100 66.7743
92.02 100 67.9312
90.0818 100 66.9838
84.1199 100 66.6597
90.1582 100 58.3613
91.4469 100 57.987
91.0903 100 56.2047
87.1215 100 49.7197
93.5425 100 54.3256
107.029 100 32.8224
107.296 100 31.1325
106.446 100 30.3595
107.364 100 29.7369
105.373 100 31.0635
112.087 100 32.4304
110.92 100 23.8136
112.407 100 22.9228
110.7 100 25.6842
111.79 100 25.5754
112.782 100 25.0665
113.67 100 25.7794
112.016 100 24.2093
113.837 100 24.494
114.447 100 30.1047
118.355 100 30.9692
116.775 100 29.5469
117.3 100 30.8372
116.51 100 31.6244
116.697 100 32.6788
131.745 100 55.0651
137.371 100 49.7198
131.296 100 56.4741
133.108 100 57.6804
135.253 100 57.1361
135.499 100 68.8737
134.24 100 66.2809
134.233 100 68.5895
133.145 100 66.2981
133.437 100 67.4319
140.834 100 73.2152
140.569 100 74.2487
141.677 100 73.9126
142.867 100 73.372
144.604 100 73.7108
145.533 100 73.3286
146.799 100 73.037
148.661 100 73.4325
149.273 100 72.553
147.79 100 72.5551
74.3264 100 73.3367
75.2115 100 73.95
77.096 100 73.661
78.0818 100 74.266
79.1625 100 74.7651
81.2333 100 74.7049
82.2873 100 75.0429
83.2674 100 75.3632
84.5227 100 74.8016
85.6329 100 75.506
87.0366 100 75.3265
92.2454 100 65.9681
90.8412 100 67.7881
91.161 100 63.9698
90.84 100 59.1104
90.9097 100 65.7952
92.1108 100 57.0556
92.2478 100 55.8773
93.3757 100 56.0526
96.5992 100 53.4347
106.447 100 31.8747
96.3286 100 39.0243
106.643 100 42.7076
109.257 100 28.8884
108.555 100 29.7388
111.964 100 31.3011
110.636 100 30.9206
109.674 100 30.0809
106.707 100 20.8455
111.458 100 26.5786
112.65 100 26.1874
118.137 100 20.9131
113.252 100 28.1768
115.709 100 29.6258
115.452 100 31.1848
116.311 100 30.5213
114.595 100 27.6895
118.844 100 42.3909
128.164 100 39.0243
117.839 100 31.9707
127.353 100 54.7772
129.155 100 55.329
132.033 100 54.0165
134.074 100 57.1937
133.152 100 65.2674
133.603 100 58.7472
131.972 100 62.3516
134.648 100 67.5413
132.182 100 65.7151
138.421 100 75.7559
139.366 100 75.2257
140.523 100 75.334
141.564 100 75.0757
142.507 100 74.6867
143.555 100 74.354
145.419 100 74.5207
146.474 100 74.1296
147.59 100 73.7444
149.586 100 74.15
150.272 100 73.2862
74.2865 100 74.5747
75.2409 100 75.0656
76.1611 100 74.4615
77.133 100 75.009
78.1889 100 75.3877
80.3313 100 75.4233
81.3594 100 75.7401
82.3927 100 76.193
83.4113 100 76.4939
84.4727 100 75.9176
86.4341 100 76.273
86.1724 100 77.3341
88.3639 100 77.3672
91.9427 100 64.7473
90.2966 100 62.4585
93.0482 100 61.4645
92.631 100 58.036
93.3478 100 57.1555
94.3815 100 56.724
95.6956 100 54.2027
97.5949 100 53.0067
104.26 100 43.6398
105.458 100 43.1357
106.594 100 43.8463
98.4291 100 40.5649
107.919 100 43.064
107.522 100 41.8666
105.657 100 41.8621
111.194 100 27.7727
112.368 100 29.0172
112.387 100 27.5577
113.424 100 26.9327
122.067 100 42.1756
118.626 100 41.241
117.472 100 42.7246
120.8 100 43.1532
118.527 100 44.0617
119.46 100 43.4271
120.803 100 44.309
126.609 100 54.0685
130.46 100 55.1263
130.028 100 56.0862
133.021 100 56.6204
132.065 100 57.2993
132.693 100 60.4605
131.988 100 61.2874
132.374 100 64.5285
136.676 100 76.1616
137.805 100 76.6663
139.008 100 76.8546
140.008 100 76.3317
141.283 100 76.158
142.41 100 75.8822
143.469 100 75.4916
144.463 100 74.9709
146.208 100 75.2226
147.256 100 74.9783
148.382 100 74.461
149.101 100 75.3107
150.615 100 74.664
74.2817 100 75.6922
75.3836 100 76.1459
76.3314 100 75.6297
77.4351 100 76.0733
79.2004 100 75.8766
80.1278 100 76.4643
81.0865 100 76.8528
82.1717 100 77.3152
84.3168 100 77.1341
85.3205 100 76.7078
85.6355 100 78.9466
87.2345 100 77.5316
87.6298 100 76.4003
92.2004 100 63.3696
91.2746 100 62.8311
91.0339 100 61.556
93.0917 100 59.0635
91.9514 100 59.1517
93.7092 100 58.1708
95.0521 100 58.0088
95.3499 100 55.6886
97.9866 100 54.6003
104.599 100 42.4617
105.272 100 47.687
105.371 100 44.2354
105.925 100 45.3531
108.14 100 45.6577
110.59 100 45.6776
108.676 100 42.2192
111.978 100 30.0377
113.729 100 29.2543
115.173 100 40.8215
115.488 100 43.772
116.436 100 44.4849
117.433 100 45.01
119.532 100 44.5411
118.633 100 45.2639
119.631 100 41.539
126.146 100 55.118
128.816 100 56.3893
129.53 100 57.2899
131.706 100 58.272
132.385 100 59.276
131.523 100 60.2489
130.876 100 61.361
131.449 100 63.469
131.071 100 64.6022
137.421 100 75.0933
137.639 100 78.0601
138.673 100 77.8935
139.787 100 77.5708
140.877 100 77.1683
142.062 100 77.0311
143.201 100 76.7928
144.145 100 76.2756
145.127 100 75.7896
147.028 100 76.2082
148.046 100 75.7698
149.088 100 76.4818
150.174 100 75.8034
74.3799 100 76.7388
75.3746 100 77.2665
76.3514 100 76.7316
78.4055 100 76.5769
79.2569 100 77.1769
80.2869 100 77.6572
81.3079 100 77.9452
82.4122 100 78.4186
83.2828 100 77.5452
84.4182 100 78.175
85.398 100 80.0422
89.0353 100 78.5709
88.6111 100 76.2295
95.3307 100 61.5051
92.0961 100 62.0607
93.5964 100 60.0798
96.1273 100 60.1547
95.7547 100 58.8323
95.4315 100 56.8129
96.3727 100 55.7156
96.664 100 54.6223
103.005 100 52.0144
104.858 100 46.6732
106.975 100 46.3567
106.953 100 45.254
108.197 100 46.6911
109.304 100 46.0026
110.328 100 46.6616
107.809 100 44.2107
110.785 100 31.951
110.523 100 33.022
116.472 100 43.3049
113.332 100 46.2288
114.562 100 45.8458
116.059 100 45.7202
117.42 100 43.8538
117.307 100 46.0936
117.98 100 47.3339
122.133 100 51.4583
128.456 100 54.5351
128.061 100 55.67
128.409 100 57.6985
130.539 100 58.3182
131.253 100 59.2065
129.938 100 59.435
130.338 100 63.5994
130.8 100 62.4737
136.875 100 77.2856
136.67 100 78.444
139.6 100 79.7841
139.523 100 78.6523
140.72 100 78.3626
141.816 100 78.0995
142.97 100 77.895
143.984 100 77.6022
144.997 100 76.9925
145.932 100 76.553
147.92 100 76.878
148.762 100 77.513
150.162 100 76.943
74.362 100 77.9332
75.2987 100 78.3632
76.3158 100 77.7606
77.4376 100 77.1454
78.3888 100 77.7903
79.2821 100 78.378
80.3752 100 78.651
81.4622 100 79.0707
82.5117 100 79.5878
83.4032 100 78.7249
84.4016 100 79.3373
86.6583 100 78.4979
89.0075 100 79.6421
88.1021 100 75.2218
89.6532 100 76.023
94.2168 100 61.1103
96.4258 100 61.1706
97.2461 100 60.4311
96.8436 100 59.2866
96.6063 100 57.0657
97.4956 100 55.6947
99.6266 100 54.7226
104.216 100 50.7114
104.908 100 49.7929
106.031 100 46.9486
107.361 100 47.3844
108.297 100 49.3369
109.197 100 47.2818
111.975 100 45.4651
110.88 100 44.5796
114.373 100 44.128
114.284 100 47.0183
115.227 100 46.8143
115.812 100 47.8879
116.443 100 46.7338
118.583 100 46.4399
118.981 100 47.8436
122.08 100 50.1926
124.485 100 55.521
127.031 100 55.8116
127.774 100 56.7616
129.41 100 58.3488
128.437 100 59.7262
128.954 100 60.7852
130.158 100 60.5237
135.496 100 75.9435
137.745 100 72.5584
135.907 100 79.2688
138.346 100 78.8545
140.7 100 79.5077
141.647 100 79.1887
142.814 100 80.3764
142.752 100 79.1797
144.01 100 78.8976
144.899 100 78.2409
145.781 100 77.7493
146.83 100 77.2679
147.839 100 78.0294
148.742 100 78.557
149.837 100 77.8631
73.1559 100 78.4409
74.0791 100 78.9385
76.3144 100 78.8462
77.3338 100 78.2248
78.2651 100 78.9583
78.5219 100 81.4637
80.4906 100 79.8986
81.527 100 80.3072
82.5496 100 80.6542
83.5257 100 79.9207
85.5788 100 81.2974
87.9208 100 78.5082
89.5974 100 80.6179
89.3805 100 74.9614
94.9962 100 62.5999
94.9224 100 60.3455
96.246 100 62.4509
98.3629 100 60.8219
97.0588 100 58.1116
97.5831 100 56.8222
98.8527 100 55.4495
101 100 54.8525
104.055 100 51.7789
106.342 100 48.0593
109.213 100 50.3589
109.361 100 48.5672
106.583 100 51.7766
110.156 100 47.8248
105.753 100 52.5185
107.765 100 51.762
118.184 100 52.9264
117.106 100 51.9929
115.137 100 48.8267
116.005 100 53.0355
115.77 100 50.0035
116.227 100 48.9675
116.931 100 47.7181
121.072 100 51.47
122.027 100 53.5686
125.492 100 55.9136
126.423 100 56.7749
128.19 100 58.7352
127.241 100 59.5926
127.817 100 61.304
129.857 100 61.7338
129.595 100 62.7597
136.281 100 75.1587
130.481 100 79.7878
137.099 100 79.4619
140.402 100 80.684
141.643 100 80.4784
142.102 100 81.4748
143.778 100 79.9884
144.894 100 79.4172
145.854 100 80.1515
145.912 100 78.882
146.886 100 78.3924
147.823 100 79.0836
149.892 100 79.0938
150.717 100 78.4835
73.1497 100 79.588
74.2497 100 79.9193
75.3265 100 79.5792
76.4006 100 80.2124
77.2407 100 79.5725
77.4356 100 80.6536
78.7087 100 80.3786
80.6087 100 80.9728
81.741 100 81.4072
83.0583 100 81.658
84.2822 100 81.9399
85.2366 100 82.2523
86.5668 100 79.6653
86.3719 100 82.2066
85.9929 100 83.2646
90.5063 100 79.6132
95.8953 100 63.9711
97.471 100 61.4839
99.0802 100 58.8841
97.9618 100 59.1643
98.5104 100 57.9007
98.6266 100 56.6092
104.747 100 52.6401
105.594 100 48.8613
107.582 100 48.4181
108.139 100 50.7504
107.475 100 49.9528
105.33 100 53.5504
106.428 100 53.5591
108.289 100 54.8777
117.141 100 53.1697
119.987 100 53.6072
120.515 100 54.5915
117.242 100 50.4029
116.191 100 50.9754
117.298 100 49.2241
117.996 100 48.4305
121.628 100 52.4705
124.774 100 56.7285
127.112 100 57.8363
125.831 100 58.8265
126.001 100 60.0666
126.926 100 60.6291
128.74 100 61.9186
131.392 100 79.0727
138.884 100 82.2758
139.34 100 80.9155
138.319 100 80.1419
139.956 100 81.8516
140.737 100 82.9114
141.081 100 81.57
143.325 100 81.2984
144.735 100 81.7503
144.679 100 80.6728
146.811 100 80.7914
146.891 100 79.6802
147.855 100 80.1149
148.833 100 79.6563
149.948 100 80.248
151.076 100 79.6609
73.1584 100 80.7251
74.344 100 81.0291
75.4221 100 80.7696
76.4841 100 81.2834
77.2995 100 82.6768
75.2315 100 84.3899
77.5263 100 81.6447
79.5986 100 81.5213
80.7993 100 82.2381
79.5225 100 82.5722
81.9252 100 82.7823
82.9886 100 83.8272
83.9573 100 82.9958
84.919 100 83.2899
87.0581 100 83.1224
90.0773 100 78.6796
96.9604 100 63.9215
97.1858 100 62.87
98.9433 100 59.899
101.475 100 59.5446
99.7439 100 55.9213
103.263 100 54.709
[...]
POINT_DATA 1600
SCALARS mass double
LOOKUP_TABLE default
1
1
1
1
1
1
1
1
1
1
1
1
1
1
1
1
1
1
1
1
1
1
1
1
1
1
1
1
1
1
1
1
1
1
1
1
1
1
1
1
1
1
1
1
1
1
1
1
1
1
1
1
1
1
1
1
1
1
1
1
1
1
1
1
1
1
1
1
1
1
1
1
1
1
1
1
1
1
1
1
1
1
1
1
1
1
1
1
1
1
1
1
1
1
1
1
1
1
1
1
1
1
1
1
1
1
1
1
1
1
1
1
1
1
1
1
1
1
1
1
1
1
1
1
1
1
1
1
1
1
1
1
1
1
1
1
1
1
1
1
1
1
1
1
1
1
1
1
1
1
1
1
1
1
1
1
1
1
1
1
1
1
1
1
1
1
1
1
1
1
1
1
1
1
1
1
1
1
1
1
1
1
1
1
1
1
1
1
1
1
1
1
1
1
1
1
1
1
1
1
1
1
1
1
1
1
1
1
1
1
1
1
1
1
1
1
1
1
1
1
1
1
1
1
1
1
1
1
1
1
1
1
1
1
1
1
1
1
1
1
1
1
1
1
1
1
1
1
1
1
1
1
1
1
1
1
1
1
1
1
1
1
1
1
1
1
1
1
1
1
1
1
1
1
1
1
1
1
1
1
1
1
1
1
1
1
1
1
1
1
1
1
1
1
1
1
1
1
1
1
1
1
1
1
1
1
1
1
1
1
1
1
1
1
1
1
1
1
1
1
1
1
1
1
1
1
1
1
1
1
1
1
1
1
1
1
1
1
1
1
1
1
1
1
1
1
1
1
1
1
1
1
1
1
1
1
1
1
1
1
1
1
1
1
1
1
1
1
1
1
1
1
1
1
1
1
1
1
1
1
1
1
1
1
1
1
1
1
1
1
1
1
1
1
1
1
1
1
1
1
1
1
1
1
1
1
1
1
1
1
1
1
1
1
1
1
1
1
1
1
1
1
1
1
1
1
1
1
1
1
1
1
1
1
1
1
1
1
1
1
1
1
1
1
1
1
1
1
1
1
1
1
1
1
1
1
1
1
1
1
1
1
1
1
1
1
1
1
1
1
1
1
1
1
1
1
1
1
1
1
1
1
1
1
1
1
1
1
1
1
1
1
1
1
1
1
1
1
1
1
1
1
1
1
1
1
1
1
1
1
1
1
1
1
1
1
1
1
1
1
1
1
1
1
1
1
1
1
1
1
1
1
1
1
1
1
1
1
1
1
1
1
1
1
1
1
1
1
1
1
1
1
1
1
1
1
1
1
1
1
1
1
1
1
1
1
1
1
1
1
1
1
1
1
1
1
1
1
1
1
1
1
1
1
1
1
1
1
1
1
1
1
1
1
1
1
1
1
1
1
1
1
1
1
1
1
1
1
1
1
1
1
1
1
1
1
1
1
1
1
1
1
1
1
1
1
1
1
1
1
1
1
1
1
1
1
1
1
1
1
1
1
1
1
1
1
1
1
1
1
1
1
1
1
1
1
1
1
1
1
1
1
1
1
1
1
1
1
1
1
1
1
1
1
1
1
1
1
1
1
1
1
1
1
1
1
1
1
1
1
1
1
1
1
1
1
1
1
1
1
1
1
1
1
1
1
1
1
1
1
1
1
1
1
1
1
1
1
1
1
1
1
1
1
1
1
1
1
1
1
1
1
1
1
1
1
1
1
1
1
1
1
1
1
1
1
1
1
1
1
1
1
1
1
1
1
1
1
1
1
1
1
1
1
1
1
1
1
1
1
1
1
1
1
1
1
1
1
1
1
1
1
1
1
1
1
1
1
1
1
1
1
1
1
1
1
1
1
1
1
1
1
1
1
1
1
1
1
1
1
1
1
1
1
1
1
1
1
1
1
1
1
1
1
1
1
1
1
1
1
1
1
1
1
1
1
1
1
1
1
1
1
1
1
1
1
1
1
1
1
1
1
1
1
1
1
1
1
1
1
1
1
1
1
1
1
1
1
1
1
1
1
1
1
1
1
1
1
1
1
1
1
1
1
1
1
1
1
1
1
1
1
1
1
1
1
1
1
1
1
1
1
1
1
1
1
1
1
1
1
1
1
1
1
1
1
1
1
1
1
1
1
1
1
1
1
1
1
1
1
1
1
1
1
1
1
1
1
1
1
1
1
1
1
1
1
1
1
1
1
1
1
1
1
1
1
1
1
1
1
1
1
1
1
1
1
1
1
1
1
1
1
1
1
1
1
1
1
1
1
1
1
1
1
1
1
1
1
1
1
1
1
1
1
1
1
1
1
1
1
1
1
1
1
1
1
1
1
1
1
1
1
1
1
1
1
1
1
1
1
1
1
1
1
1
1
1
1
1
1
1
1
1
1
1
1
1
1
1
1
1
1
1
1
1
1
1
1
1
1
1
1
1
1
1
1
1
1
1
1
1
1
1
1
1
1
1
1
1
1
1
1
1
1
1
1
1
1
1
1
1
1
1
1
1
1
1
1
1
1
1
1
1
1
1
1
1
1
1
1
1
1
1
1
1
1
1
1
1
1
1
1
1
1
1
1
1
1
1
1
1
1
1
1
1
1
1
1
1
1
1
1
1
1
1
1
1
1
1
1
1
1
1
1
1
1
1
1
1
1
1
1
1
1
1
1
1
1
1
1
1
1
1
1
1
1
1
1
1
1
1
1
1
1
1
1
1
1
1
1
1
1
1
1
1
1
1
1
1
1
1
1
1
1
1
1
1
1
1
1
1
1
1
1
1
1
1
1
1
1
1
1
1
1
1
1
1
1
1
1
1
1
1
1
1
1
1
1
1
1
1
1
1
1
1
1
1
1
1
1
1
1
1
1
1
1
1
1
1
1
1
1
1
1
1
1
1
1
1
1
1
1
1
1
1
1
1
1
1
1
1
1
1
1
1
1
1
1
1
1
1
1
1
1
1
1
1
1
1
1
1
1
1
1
1
1
1
1
1
1
1
1
1
1
1
1
1
1
1
1
1
1
1
1
1
1
1
1
1
1
1
1
1
1
1
1
1
1
1
1
1
1
1
1
1
1
1
1
1
1
1
1
1
1
1
1
1
1
1
1
1
1
1
1
1
1
1
1
1
1
1
1
1
1
1
1
1
1
1
1
1
1
1
1
1
1
1
1
1
1
1
1
1
1
1
1
1
1
1
1
1
1
1
1
1
1
1
1
1
1
1
1
1
1
1
1
1
1
1
1
1
1
1
1
1
1
1
1
1
1
1
1
1
1
1
1
1
1
1
1
1
1
1
1
1
1
1
1
1
1
1
1
1
1
1
1
1
1
1
1
1
1
1
1
1
1
1
1
1
1
1
1
1
1
1
1
1
1
1
1
1
1
1
1
1
1
1
1
1
1
1
1
1
1
1
1
1
1
1
1
1
1
1
1
1
1
1
1
1
1
1
1
1
1
1
1
1
1
1
1
1
1
1
1
1
1
1
1
1
1
1
1
1
1
1
1
1
1
1
1
1
1
1
1
1
1
1
1
1
1
1
1
1
1
1
1
1
1
1
1
1
1
1
1
1
1
1
1
1
1
1
1
1
1
1
1
1
1
1
1
1
1
1
1
1
1
1
1
1
1
1
1
1
1
1
1
1
1
1
1
1
1
1
1
1
1
1
1
1
1
VECTORS force double
12.4804 0 6.69188
-0.149963 0 18.4074
-28.0678 0 -14.8284
33.1856 0 -30.9451
-9.94235 0 0.332585
-55.4289 0 -4.53036
10.6932 0 15.5105
-16.1643 0 26.8609
-10.6426 0 -25.7811
12.6615 0 2.46773
2.57818 0 -26.0846
-4.71013 0 22.6673
-29.3825 0 7.05889
8.82878 0 -10.7551
0 0 0
-51.6333 0 -71.8866
4.21367 0 18.488
19.7463 0 5.88287
0 0 0
0.0832153 0 3.19088
1.88687 0 -0.0310592
-5.6559 0 -9.94726
-8.59668 0 18.1296
14.4796 0 6.12279
19.1854 0 -0.255798
-11.8274 0 -6.07479
10.4876 0 4.11413
-4.43693 0 11.7164
-2.04257 0 6.41008
-7.54025 0 -62.9357
9.73672 0 -5.65508
2.3178 0 -6.57478
-1.05908 0 2.8824
-13.9001 0 16.7451
16.183 0 2.8464
27.2955 0 4.7366
36.8297 0 -9.357
23.2542 0 15.1832
-0.842854 0 -23.3149
12.4939 0 16.0902
-17.2805 0 21.5707
0 0 0
-8.0262 0 -8.37517
-11.1262 0 51.0841
-10.8444 0 0.74827
-13.2775 0 -6.04594
3.74085 0 12.693
6.83006 0 -5.88364
-8.96035 0 72.6773
18.3517 0 -8.53692
-0.25973 0 -31.2224
7.28274 0 21.4325
13.3487 0 17.8926
-5.13177 0 24.289
-109.523 0 65.2678
121.032 0 -23.3633
-41.0468 0 -8.87923
-3.28902 0 -10.1235
16.7184 0 -7.69886
18.5921 0 18.5468
-7.06613 0 -3.58393
-15.4679 0 4.51718
-0.167708 0 40.7031
4.14907 0 23.8807
2.56293 0 5.12524
20.8581 0 -39.7201
-54.3142 0 -19.3929
65.9101 0 49.7715
-2.85531 0 7.84379
-18.7392 0 7.66106
-24.9782 0 15.8901
-9.44243 0 -11.1173
21.209 0 -5.7944
4.29743 0 -16.3405
66.2793 0 58.2919
12.694 0 5.02668
4.20344 0 -15.7516
-4.7916 0 16.3901
3.32404 0 0.194498
-20.5142 0 25.0909
-8.39211 0 -15.4102
0 0 0
-1.20858 0 -2.75751
8.05342 0 6.27274
-7.52707 0 9.06371
-16.9585 0 -6.15563
-4.35459 0 -57.604
-3.30823 0 -5.72441
0 0 0
0.623461 0 41.0177
-7.20672 0 19.5149
0 0 0
27.2371 0 19.2098
-46.3375 0 -5.46659
-7.97567 0 2.33645
-38.3729 0 7.11197
-15.8919 0 -0.460281
1.15886 0 1.15442
0 0 0
-22.4109 0 -9.22787
48.2916 0 40.0104
32.5809 0 29.6079
2.74225 0 -12.8242
13.399 0 -9.89047
44.5142 0 -55.5339
-14.6631 0 -8.16392
-20.935 0 36.4675
-13.8903 0 -6.95599
-23.1332 0 -2.34283
-12.4646 0 8.22342
30.7619 0 3.57134
-28.6945 0 19.7533
-52.6039 0 14.802
73.5218 0 -19.112
4.2812 0 -15.9686
0.233579 0 -43.0755
5.24727 0 -8.13031
-7.67426 0 9.00078
-23.2243 0 15.467
-7.8046 0 -3.91545
-18.2233 0 -21.8375
19.8846 0 12.2497
31.2151 0 6.11719
80.3068 0 -76.2923
68.4864 0 -48.8532
-26.8177 0 -50.7905
26.4758 0 61.0937
-29.0019 0 -13.4203
34.9338 0 -33.9623
-5.32579 0 15.8382
10.2893 0 2.302
11.5824 0 39.5278
-94.1071 0 -6.86863
4.38822 0 12.9992
-34.1296 0 -20.7235
12.938 0 -8.27371
-25.837 0 8.367
-22.4741 0 -10.3637
-40.4763 0 -5.65313
-25.538 0 -13.2041
14.4214 0 -1.56953
24.8281 0 -10.204
21.5051 0 -4.71483
-3.73009 0 3.6329
0 0 0
-17.0937 0 -7.24635
4.35968 0 23.512
-1.99095 0 25.3555
16.6209 0 -12.5089
20.042 0 -25.71
-30.0655 0 -30.5323
11.3609 0 26.9523
-3.21756 0 2.57867
-41.2966 0 -2.44872
4.08872 0 6.09539
-8.26487 0 6.5897
-8.47165 0 9.40511
3.6006 0 -11.3645
-14.9366 0 -7.17875
-50.069 0 -39.0113
18.7737 0 -31.5223
-28.0448 0 47.823
-3.02959 0 -19.0386
22.0081 0 -58.484
-5.38666 0 -25.1906
-11.5728 0 -20.7871
-34.8791 0 -9.9093
10.3488 0 24.8308
-1.72936 0 12.7426
-36.6151 0 -47.6183
8.3784 0 8.18085
7.57258 0 -4.73343
-5.9189 0 3.50208
-48.7698 0 -44.8029
-48.3165 0 -11.2038
2.02796 0 51.1677
26.0823 0 -14.8351
7.2198 0 53.0487
10.496 0 5.8377
-15.7024 0 2.22912
13.0527 0 -37.9103
-27.8021 0 21.7991
-58.0378 0 29.9331
-87.7922 0 34.6614
27.1886 0 -17.1554
-48.7663 0 22.1369
66.2071 0 15.9371
19.7339 0 -24.2723
-8.0253 0 -50.8767
-10.8912 0 -44.1701
-10.2635 0 2.25582
29.4638 0 -4.07686
-137.519 0 21.2905
8.26878 0 13.6348
20.56 0 -2.06159
6.4958 0 21.9539
-12.951 0 13.1059
10.3974 0 -21.5425
39.6555 0 3.65197
-19.0303 0 -29.8385
-77.687 0 -0.387988
-6.39086 0 15.9906
-1.04801 0 -0.379286
-12.9273 0 45.6185
6.86072 0 7.12475
-61.1829 0 2.67804
-13.2939 0 -58.6569
19.7756 0 -82.0697
-13.7895 0 -0.381029
-6.52155 0 24.2436
-14.182 0 -14.2468
0 0 0
-10.1098 0 15.5865
-1.55556 0 -7.9201
13.1512 0 -18.9211
8.21534 0 4.34623
-12.3947 0 -7.7134
37.2859 0 20.2495
55.3044 0 -54.9022
51.0963 0 44.4887
-2.79958 0 -35.1106
7.19408 0 11.0643
-4.36003 0 3.49504
7.91998 0 26.9212
24.9184 0 -7.5777
1.32025 0 -4.25116
10.8083 0 -18.2768
-0.207001 0 19.9798
-9.01202 0 -27.9664
76.6997 0 -85.2992
37.0442 0 16.2933
-4.76829 0 23.5212
5.12213 0 -18.7889
-29.8287 0 -5.41152
45.0683 0 37.4042
39.9601 0 17.2419
-13.602 0 -36.3465
22.1245 0 -7.3124
2.38628 0 -27.107
-16.8144 0 -5.96603
14.3507 0 48.1588
-37.3059 0 -14.8904
20.5635 0 -64.4316
-57.6325 0 -2.13288
69.9102 0 13.1863
-53.6258 0 -141.136
14.3717 0 38.4602
-59.9557 0 -17.7337
-9.77688 0 54.789
-4.67255 0 53.5711
1.8245 0 1.26084
-42.7358 0 -42.108
98.4248 0 -8.63834
0.559895 0 -7.5019
-9.57506 0 7.9686
10.837 0 12.3904
-17.5942 0 -33.8503
26.8603 0 23.3325
50.0468 0 11.5714
75.81 0 13.1121
48.0916 0 14.9817
-17.0493 0 3.51058
10.1877 0 -8.2707
13.0936 0 -7.38293
76.6183 0 -21.5158
18.1073 0 46.2686
-1.59017 0 18.1306
-43.1033 0 88.9943
-16.7425 0 2.84386
25.8649 0 41.7853
1.45402 0 4.70792
9.63892 0 -2.8073
17.1538 0 1.96171
-1.65611 0 19.127
0.923535 0 -17.4149
3.62268 0 16.0008
20.975 0 5.48891
-16.0328 0 -1.19037
28.6463 0 -8.55073
-29.7001 0 -12.6131
22.2831 0 -53.7622
16.2287 0 -39.9165
0.34961 0 7.24391
-39.6501 0 31.1465
4.29229 0 -22.5616
11.261 0 -2.72223
-8.1008 0 13.9797
21.8583 0 -0.922598
-52.3537 0 -1.70969
-3.13347 0 10.7683
2.4142 0 5.30585
-9.40955 0 -3.1092
3.32896 0 -0.83646
-49.2791 0 18.3991
43.8741 0 -15.6512
-70.7532 0 25.0174
68.4086 0 -19.5132
-24.3898 0 -12.3156
60.4957 0 -26.4362
48.8111 0 -179.167
-44.0398 0 -84.5453
58.8157 0 45.7455
24.7169 0 63.4599
-10.3087 0 12.8498
-55.5231 0 -1.98993
24.0319 0 0.261622
25.8665 0 132.185
-2.11111 0 12.1421
-36.4865 0 -50.0186
57.5592 0 25.3407
44.4785 0 -31.7461
8.03579 0 -3.99373
9.5428 0 18.5025
32.5246 0 10.2237
28.3065 0 10.7512
-41.002 0 37.787
-14.4596 0 45.1095
4.16525 0 -39.4799
-2.43667 0 -1.74269
-113.152 0 16.1895
10.5046 0 -9.76122
28.9078 0 -8.67108
12.272 0 -19.393
3.97161 0 1.22219
21.8797 0 -19.0195
-31.8488 0 -12.9995
62.0798 0 -41.6151
-3.27998 0 -13.5887
-11.1495 0 -1.08494
4.88164 0 9.22222
9.78545 0 0.182503
-226.81 0 31.2329
241.579 0 -52.3838
0.194037 0 -8.58875
-28.818 0 30.676
0.637581 0 -22.4756
-7.85636 0 1.62007
-1.75811 0 14.9211
-10.5691 0 5.06513
-56.2337 0 34.0949
-24.1204 0 2.99106
-17.5668 0 37.5349
16.9966 0 84.5384
3.849 0 6.03003
-9.1027 0 10.1053
12.478 0 16.812
0 0 0
-7.01779 0 -5.35148
-4.2266 0 121.348
-118.071 0 47.7736
100.659 0 -26.7113
-85.1028 0 -15.7257
21.995 0 -0.0287779
-82.0098 0 -47.8331
-69.3675 0 48.3432
111.665 0 -42.763
1.78136 0 24.4067
-2.42315 0 -85.9954
85.594 0 47.3688
-93.5054 0 178.884
-25.883 0 -17.973
17.3596 0 -60.0854
6.95887 0 29.8333
1.10105 0 33.4899
-7.97122 0 -9.37461
68.8243 0 -24.6874
2.58414 0 -37.3346
-7.86641 0 -23.0522
30.9088 0 21.2571
-18.2604 0 26.5802
30.321 0 -85.3516
-12.8535 0 -17.7359
4.62234 0 -11.6859
-17.0459 0 -1.58599
14.7971 0 -7.06894
44.7487 0 -31.9127
-74.3813 0 -41.0072
-4.45205 0 10.5272
5.85054 0 7.05276
75.1887 0 -11.8891
-132.408 0 -20.5369
-11.4382 0 1.35793
18.109 0 8.63582
24.1061 0 -15.076
-13.0281 0 -6.87111
-22.9286 0 5.38488
31.0438 0 10.7887
16.646 0 -16.6344
97.1099 0 -13.5764
-17.649 0 17.828
30.3302 0 -2.2436
-3.2943 0 7.21586
1.94496 0 0.326371
9.69135 0 -3.80185
-9.71239 0 -42.4624
3.94797 0 -9.99834
6.93438 0 22.0422
0.789333 0 -25.2228
52.7248 0 4.71361
-1.45921 0 55.1026
-0.254479 0 3.94376
-28.0635 0 -45.847
11.5124 0 -19.9052
0.33797 0 -2.12803
-3.51705 0 -39.4255
-6.44296 0 20.7926
0.954629 0 -19.7691
15.6435 0 38.2648
8.12567 0 -2.22164
16.8977 0 -14.9992
-16.1324 0 -15.84
85.3319 0 -13.3849
51.3689 0 -20.6956
65.2943 0 47.512
-9.7958 0 -13.5616
-17.0052 0 16.6218
-66.6693 0 32.0695
-26.8927 0 -13.1419
-70.4153 0 43.1224
73.9569 0 -21.2533
10.1444 0 -1.54514
16.8868 0 131.02
11.0529 0 -4.79276
-40.8471 0 -13.535
30.2215 0 -49.3699
3.10831 0 -116.748
-9.07192 0 -5.07256
11.266 0 34.3047
-13.5373 0 16.9501
0.577975 0 3.99813
-105.815 0 -40.8195
84.6558 0 118.607
-17.3978 0 -11.9922
-8.26348 0 -1.859
4.2382 0 -53.0425
15.2072 0 68.6263
-18.083 0 1.70691
12.9652 0 40.8038
1.0645 0 -76.4511
9.09181 0 -0.709434
-4.1939 0 -11.396
1.1361 0 -31.4527
-95.922 0 -1.9213
-31.7484 0 3.22843
-6.46274 0 47.3645
45.5218 0 15.9049
-101.567 0 -8.17025
-3.8067 0 28.2798
17.9152 0 -10.1272
-39.1446 0 -66.9248
-23.2394 0 0.0265101
-26.5397 0 -19.3294
-0.750475 0 1.87047
-6.48249 0 -8.30186
29.7547 0 31.7638
-9.73524 0 40.3619
28.6232 0 -16.9902
6.86881 0 -24.8742
-2.18341 0 7.77925
9.92018 0 -12.7735
24.2933 0 13.3029
-12.8908 0 -62.0501
30.6145 0 22.2485
8.05396 0 11.6075
-6.74814 0 43.5209
2.51813 0 -8.21073
-21.6497 0 -5.5934
13.6493 0 -12.619
13.1513 0 0.997352
-25.3463 0 -9.70676
-69.1888 0 15.6626
20.4649 0 29.5104
1.43657 0 29.0516
13.7054 0 -29.4635
-29.9982 0 -5.21687
-46.9014 0 -30.2688
18.383 0 43.2989
27.4686 0 -43.4949
1.66922 0 -17.5412
-25.2169 0 -6.3485
22.7525 0 -2.78618
-12.3608 0 16.6968
6.59164 0 -3.71358
-7.99909 0 12.0407
-24.2439 0 25.588
-20.7027 0 20.3432
-62.3675 0 123.381
27.547 0 -38.7273
-2.96696 0 -4.87507
12.2686 0 30.5441
7.2304 0 -61.8099
6.02011 0 6.61019
-108.666 0 -11.8655
74.7771 0 58.654
-8.17364 0 13.6098
8.57069 0 -66.2253
47.9141 0 0.84071
83.668 0 3.16516
-13.9451 0 60.2817
14.6397 0 1.26502
79.3474 0 51.7224
-18.1507 0 -55.9605
-22.0201 0 -1.60977
7.5967 0 -12.5412
-18.6669 0 -30.8146
31.4796 0 10.3513
-36.4062 0 59.8522
-2.23446 0 -2.37936
7.12509 0 8.35783
-29.291 0 -9.71701
-71.9716 0 27.5656
10.3767 0 -2.68072
-28.2673 0 2.85394
29.242 0 -51.201
-12.7381 0 -17.3506
-4.3531 0 -14.3657
-21.2573 0 -1.26083
54.262 0 36.5088
-58.7482 0 2.13357
18.0137 0 -19.2976
-40.852 0 45.267
6.58659 0 -63.2529
-1.12556 0 -30.5626
-25.889 0 6.92038
26.3572 0 -2.20819
-17.0224 0 -11.7735
19.4443 0 27.515
-20.2521 0 -17.0163
-23.3839 0 -44.1508
25.4593 0 1.40569
-0.56889 0 -5.26728
-9.86113 0 -1.40452
-0.0402277 0 9.67261
-35.5329 0 -6.84827
-57.9687 0 -38.0283
-36.6259 0 38.2181
36.239 0 56.2754
2.90612 0 49.8419
24.1792 0 -7.00683
-24.2263 0 7.1031
5.53097 0 -14.137
-24.8223 0 -20.9695
12.9654 0 -7.683
11.1356 0 -35.8829
3.87491 0 -2.8737
23.2868 0 -50.9552
-24.444 0 30.4598
-12.9561 0 -50.8103
-45.6532 0 79.7954
31.9578 0 9.5419
-1.05043 0 8.12741
-12.116 0 23.3533
9.93483 0 4.50118
-4.79451 0 -14.2615
-38.2055 0 47.7923
1.52579 0 2.17961
13.2382 0 -56.952
86.0942 0 11.5267
-7.75921 0 6.57159
-5.98664 0 -47.5125
-4.26837 0 -12.2769
-3.69063 0 4.89781
21.3861 0 11.6905
-10.8717 0 -52.8053
0.274135 0 26.827
-49.138 0 12.8042
83.1032 0 -62.7356
9.00982 0 10.4485
-11.8863 0 -6.98653
-14.59 0 22.3652
-1.50349 0 -0.405111
-2.25771 0 1.889
-3.45481 0 20.718
46.1906 0 50.6092
14.7275 0 29.6085
0.368922 0 9.29148
-1.25699 0 -7.56478
3.76356 0 -24.6592
3.99875 0 -11.3313
0.330137 0 -5.04469
13.1376 0 -23.6514
1.58307 0 66.7582
-32.5721 0 -6.61719
8.44754 0 16.0941
-15.6871 0 1.92319
-77.2036 0 -18.3547
89.9637 0 46.8803
6.40676 0 -24.7803
18.848 0 -38.3176
-28.6456 0 -23.3923
67.1388 0 -18.9594
0.553699 0 2.13729
11.7005 0 26.5295
-67.5177 0 -53.7263
-11.2911 0 -67.1237
28.2451 0 97.7699
60.5196 0 -6.17282
-7.87913 0 -70.5888
-0.152755 0 7.82593
-12.4814 0 -14.7736
-11.7021 0 8.1598
-26.3465 0 0.0940588
7.89091 0 -9.36753
44.1285 0 19.6068
-3.3628 0 32.2878
-0.395079 0 -13.3948
-6.59809 0 3.20175
82.4649 0 42.6025
3.98724 0 13.9551
-36.4659 0 -1.5302
18.651 0 20.5936
-0.0752555 0 22.7409
-5.13401 0 -3.92749
10.8024 0 3.67999
3.30147 0 -14.1847
14.1541 0 5.03164
-0.8203 0 67.365
-18.0404 0 3.95529
0.86069 0 1.99909
7.88131 0 25.3002
-19.7713 0 15.2305
-1.81084 0 44.2215
-14.1652 0 -38.4107
-30.9288 0 8.40004
-1.5601 0 -10.9676
33.0559 0 72.5888
26.1361 0 -42.9827
-12.2341 0 2.21669
1.24855 0 2.47763
9.24887 0 26.1284
7.69695 0 13.752
21.0648 0 8.38075
10.0172 0 4.49929
-2.5666 0 -3.26013
11.4478 0 0.288604
27.7211 0 35.4958
-14.1871 0 6.88922
-16.9308 0 55.4923
-46.2282 0 -6.64478
22.9116 0 0.710568
24.0897 0 3.87465
19.2831 0 7.34769
13.321 0 1.67053
-12.2866 0 -10.2396
0.317012 0 0.247397
6.16046 0 -25.4355
-56.2801 0 -35.3085
68.749 0 2.51506
41.0049 0 53.7439
-35.8806 0 32.4635
-15.7912 0 16.666
1.48931 0 1.6294
-40.4366 0 -13.5938
33.613 0 67.701
44.6679 0 7.92453
7.02145 0 -0.341326
9.07248 0 9.55738
-16.2284 0 -12.2958
-3.7825 0 8.4929
11.2133 0 -12.0672
11.4607 0 1.48395
9.08275 0 16.4425
-11.9084 0 -3.96004
-57.2137 0 -70.3928
-0.933375 0 4.9301
71.345 0 38.5008
102.989 0 -108.099
-0.665434 0 7.45207
-92.6233 0 119.112
-8.70899 0 -44.0311
-1.99963 0 -85.9501
54.0592 0 -12.3138
4.79867 0 2.11196
-38.0321 0 27.7746
20.2039 0 -40.6453
-8.98023 0 19.3652
14.3191 0 -20.5728
-7.07437 0 11.5199
10.5728 0 -18.6158
22.2296 0 -10.6368
-78.7432 0 13.8637
62.5172 0 26.8704
3.70148 0 -7.22053
-1.23983 0 0.941092
36.3009 0 -61.093
57.8685 0 53.4429
-16.9727 0 20.2766
-17.9388 0 -9.90357
56.3077 0 6.01223
-6.92686 0 -20.1511
-19.8222 0 6.00926
-88.6666 0 -47.0314
10.115 0 -14.1574
-7.86934 0 10.7112
-0.113105 0 12.3573
-2.61835 0 -15.2386
-13.8428 0 -3.64995
8.75878 0 24.6066
22.7134 0 -24.3694
4.71222 0 -17.2202
52.5267 0 16.3239
-7.97606 0 0.698214
-2.16092 0 -2.11517
11.1674 0 20.1176
24.4561 0 -6.54636
-15.6669 0 11.1245
14.2244 0 6.48946
-14.8095 0 32.4224
-2.27499 0 1.37584
21.4637 0 11.3639
-6.96295 0 -1.84274
-29.0157 0 -8.66431
-8.62742 0 9.45369
6.19859 0 9.53075
-13.0666 0 -0.116984
-10.3277 0 3.50519
-7.92436 0 2.073
9.99791 0 -65.13
3.94828 0 -14.8832
-11.4878 0 2.60112
-136.328 0 -67.1862
3.01681 0 -9.6276
26.3907 0 26.8474
76.9247 0 -2.24023
19.5485 0 11.7159
-5.74602 0 -9.07858
8.39643 0 -14.1593
-11.0418 0 -11.1052
9.30676 0 11.4
-3.46896 0 -11.1233
4.84257 0 23.1232
-11.2832 0 -7.16949
-3.37036 0 -16.1015
-7.95837 0 -10.8703
-3.23855 0 4.58851
-9.00824 0 -3.06495
-17.2845 0 19.1092
-2.22212 0 16.1222
-5.42239 0 -18.1514
-5.30017 0 -5.48171
-37.5519 0 -79.2588
0.00159651 0 -7.7154
34.3772 0 -2.63964
1.02338 0 -18.3013
8.4745 0 -4.5795
-3.42072 0 -42.5727
3.37184 0 10.1663
-54.0452 0 0.376167
3.75384 0 -22.7659
37.0421 0 32.999
4.98079 0 1.2766
-2.62252 0 -0.915334
-5.22999 0 -6.21051
14.8256 0 -3.57752
105.369 0 -0.463016
-6.69024 0 -40.6099
-97.7669 0 33.7394
-2.55251 0 0.0311277
87.9359 0 -61.9052
7.36388 0 -14.5434
-28.7233 0 -10.256
37.5986 0 40.6286
113.815 0 -23.9378
5.55715 0 -7.93204
0.969365 0 0.779724
15.0229 0 13.2506
-10.6033 0 7.35678
15.9268 0 -13.4183
-22.2957 0 -11.7787
8.53231 0 18.055
-33.0797 0 4.46761
27.1872 0 -27.7958
26.8644 0 -29.1005
-36.8941 0 13.3357
44.1144 0 -35.1967
16.2485 0 1.68077
-40.5577 0 43.8673
-23.9015 0 13.2708
3.38579 0 -2.83926
-7.65411 0 -9.65979
-0.534773 0 36.2412
9.54724 0 -23.4168
11.1959 0 -15.7754
26.9456 0 78.2782
1.05898 0 8.23287
-25.8591 0 7.9442
-99.7726 0 74.9977
10.6816 0 -18.6335
-7.85038 0 -10.6798
86.4383 0 -65.3036
-47.1641 0 71.174
11.4484 0 -0.631144
4.4584 0 14.0402
90.6915 0 -64.309
-81.2128 0 -49.309
-2.02197 0 5.90365
0.220228 0 -3.90418
7.13028 0 12.1361
-14.5679 0 10.6874
-11.4011 0 -7.78499
9.04432 0 21.4986
-7.34109 0 14.7929
-24.9466 0 19.5405
13.106 0 14.5935
-35.3638 0 81.0159
-19.9873 0 6.82148
-2.8757 0 4.56705
-14.708 0 17.3428
-7.92073 0 5.50335
-0.337228 0 4.08723
5.00495 0 12.2102
3.01723 0 13.5164
-57.5857 0 -5.4268
-103.859 0 16.7591
35.8057 0 -44.6153
-1.33143 0 1.84008
-15.7457 0 -7.87855
-16.5175 0 -5.15505
-1.71962 0 0.871835
-12.4188 0 -21.3711
-5.40558 0 24.5134
-2.22922 0 -71.6406
35.502 0 67.1465
-5.75182 0 5.12855
-8.48194 0 11.5253
-0.614582 0 -19.6306
5.14123 0 -12.1639
6.62543 0 -3.13976
-55.356 0 -31.1519
74.0977 0 63.7485
10.0656 0 8.25885
-24.5609 0 34.9434
40.7391 0 34.1973
29.5331 0 -80.4257
-10.4076 0 3.76164
40.7249 0 11.4799
-4.36905 0 6.31729
4.42804 0 23.3276
21.4565 0 20.2311
4.52753 0 2.05872
10.3102 0 12.9295
-19.8456 0 5.77493
86.6964 0 18.2572
13.2151 0 -4.49443
1.08606 0 10.7546
-2.68113 0 6.31631
32.311 0 21.603
-27.6678 0 -59.629
-29.2302 0 14.0717
29.7203 0 2.13655
7.64832 0 1.31977
-7.94732 0 12.787
-121.685 0 63.2919
-8.93751 0 -14.6134
-22.348 0 24.6282
30.9947 0 2.60032
9.00938 0 -16.5258
2.76959 0 -37.3122
-5.53652 0 -5.03185
3.92013 0 -23.0138
18.9716 0 14.0066
39.8612 0 46.0716
-18.7768 0 -12.3955
-11.2837 0 -54.7119
8.15411 0 2.83241
-7.12699 0 -8.40989
-14.2295 0 0.197453
-0.845184 0 1.29694
-7.91259 0 -7.95784
7.69604 0 2.94676
6.2401 0 -11.4231
-11.2451 0 -0.787101
0.794492 0 9.26487
11.4415 0 1.65868
-5.27919 0 14.5279
-45.5791 0 17.7472
44.063 0 34.7109
-9.88434 0 8.91754
75.8084 0 -13.4097
-11.7082 0 18.5836
-28.9213 0 -49.0872
135.105 0 27.6327
-18.2745 0 -2.24133
-15.6962 0 0.353237
20.8817 0 -5.80395
6.33252 0 40.6284
-4.28138 0 -27.6213
-1.86117 0 9.91385
3.27453 0 -2.9379
40.7442 0 -15.0224
16.6027 0 14.1132
-36.5849 0 55.0027
18.2285 0 -29.7623
-168.462 0 -181.896