# vtk DataFile Version 3.0
SiWiRVisFile
ASCII
DATASET UNSTRUCTURED_GRID
POINTS 1600 DOUBLE
77.7287 100 74.6392
78.7649 100 75.1794
79.7875 100 75.487
81.4702 100 74.9298
82.5293 100 75.1676
83.6487 100 75.3162
85.2571 100 75.7015
86.3833 100 75.7936
87.5759 100 75.9912
88.6668 100 75.4203
90.1333 100 76.2779
91.214 100 76.467
90.6682 100 74.9804
91.5012 100 73.9486
91.5206 100 72.7323
93.9475 100 70.6645
94.9442 100 70.0302
96.0836 100 70.7053
96.027 100 68.4373
98.6845 100 69.9033
103.67 100 60.4625
102.996 100 62.5957
104.02 100 61.5904
105.462 100 61.8366
104.816 100 60.7351
107.262 100 60.2114
109.089 100 59.4259
109.285 100 58.3888
110.397 100 58.8397
111.719 100 58.5956
112.773 100 58.5956
114.095 100 58.8397
115.207 100 58.3888
115.403 100 59.4259
117.231 100 60.2114
119.676 100 60.7351
119.03 100 61.8366
120.472 100 61.5904
121.497 100 62.5957
120.822 100 60.4625
125.808 100 69.9033
128.465 100 68.4373
128.409 100 70.7053
129.548 100 70.0302
130.545 100 70.6645
132.972 100 72.7323
132.991 100 73.9486
133.824 100 74.9804
133.278 100 76.467
134.359 100 76.2779
135.826 100 75.4203
136.917 100 75.9912
138.109 100 75.7936
139.235 100 75.7015
140.844 100 75.3162
141.963 100 75.1676
143.022 100 74.9298
144.705 100 75.487
145.728 100 75.1794
146.764 100 74.6392
77.843 100 75.8001
79.0341 100 76.303
80.9122 100 76.0252
81.9636 100 76.071
83.1073 100 76.2188
84.32 100 76.4592
85.6313 100 76.7342
86.8227 100 76.9217
88.0259 100 77.0726
89.1578 100 77.3954
90.48 100 77.3717
91.543 100 77.7047
92.3951 100 75.4928
92.5979 100 74.3259
93.6876 100 73.7697
92.809 100 73.0565
94.9556 100 71.3513
97.7978 100 70.662
98.9147 100 70.9335
100.696 100 69.6033
102.653 100 61.5681
100.474 100 66.3389
103.954 100 66.2881
109.414 100 62.2034
105.9 100 60.7098
106.869 100 61.3781
108.315 100 61.7096
109.434 100 60.4987
110.489 100 60.0479
111.508 100 59.687
112.984 100 59.687
114.003 100 60.0479
115.058 100 60.4987
116.177 100 61.7096
117.623 100 61.3781
118.592 100 60.7098
115.078 100 62.2034
120.539 100 66.2881
124.018 100 66.3389
121.839 100 61.5681
123.797 100 69.6033
125.578 100 70.9335
126.695 100 70.662
129.537 100 71.3513
131.683 100 73.0565
130.805 100 73.7697
131.894 100 74.3259
132.097 100 75.4928
132.949 100 77.7047
134.012 100 77.3717
135.335 100 77.3954
136.467 100 77.0726
137.67 100 76.9217
138.861 100 76.7342
140.172 100 76.4592
141.385 100 76.2188
142.529 100 76.071
143.58 100 76.0252
145.458 100 76.303
146.649 100 75.8001
78.1405 100 76.907
79.1265 100 77.3705
80.057 100 76.6949
81.3164 100 77.0549
82.4207 100 77.1283
83.6009 100 77.2078
84.766 100 77.4397
85.9749 100 77.7553
87.2345 100 77.8829
88.3964 100 78.1405
89.4675 100 78.4285
90.7979 100 79.1591
91.7874 100 78.7055
92.4929 100 76.9148
94.4583 100 74.6172
94.7369 100 73.5034
95.0797 100 72.4553
96.4905 100 71.7854
97.5513 100 71.7262
100.034 100 70.4335
102.17 100 69.4314
103.131 100 67.0108
105.143 100 67.8346
105.647 100 66.8837
106.758 100 64.7024
107.985 100 67.4905
108.347 100 66.4303
107.2 100 66.4577
110.424 100 61.653
111.72 100 60.6781
112.772 100 60.6781
114.068 100 61.653
117.293 100 66.4577
116.145 100 66.4304
116.507 100 67.4904
117.735 100 64.7023
118.845 100 66.8837
119.349 100 67.8346
121.361 100 67.0109
122.322 100 69.4314
124.458 100 70.4335
126.941 100 71.7262
128.002 100 71.7854
129.413 100 72.4553
129.755 100 73.5034
130.034 100 74.6172
132 100 76.9148
132.705 100 78.7055
133.695 100 79.1591
135.025 100 78.4285
136.096 100 78.1405
137.258 100 77.8829
138.517 100 77.7553
139.726 100 77.4397
140.891 100 77.2078
142.072 100 77.1283
143.176 100 77.0549
144.435 100 76.6949
145.366 100 77.3705
146.352 100 76.907
78.3094 100 78.0574
79.2489 100 78.651
80.1421 100 77.9473
81.3324 100 78.1689
82.9156 100 78.1117
84.0174 100 78.3728
85.2834 100 78.5807
86.4982 100 78.7446
87.458 100 79.2814
88.6483 100 79.2156
89.7495 100 79.6838
90.7452 100 80.2639
91.9027 100 79.8344
93.4632 100 76.2972
93.4488 100 75.2352
95.4614 100 75.3396
95.6915 100 74.2874
96.5192 100 73.2485
97.6741 100 72.8754
98.5817 100 72.0856
100.071 100 71.8112
101.616 100 70.5501
103.695 100 68.3864
104.905 100 68.8895
106.027 100 68.398
106.821 100 67.6387
108.826 100 68.3606
109.978 100 68.3111
109.909 100 65.8389
111.73 100 61.7946
112.762 100 61.7946
114.584 100 65.8389
114.514 100 68.3111
115.666 100 68.3605
117.671 100 67.6388
118.465 100 68.3981
119.587 100 68.8895
120.797 100 68.3864
122.876 100 70.5501
124.422 100 71.8112
125.911 100 72.0856
126.818 100 72.8754
127.973 100 73.2485
128.801 100 74.2874
129.031 100 75.3396
131.044 100 75.2352
131.029 100 76.2972
132.59 100 79.8344
133.747 100 80.2639
134.743 100 79.6838
135.844 100 79.2156
137.034 100 79.2814
137.994 100 78.7446
139.209 100 78.5807
140.475 100 78.3728
141.577 100 78.1117
143.16 100 78.1689
144.35 100 77.9473
145.244 100 78.651
146.183 100 78.0574
78.374 100 79.1927
79.3817 100 79.8449
80.2159 100 79.1397
82.1342 100 78.9702
83.2155 100 79.1775
84.4853 100 79.3267
85.6014 100 79.6697
86.7081 100 80.1294
87.7555 100 80.4104
88.886 100 80.3999
89.8926 100 80.8607
91.6894 100 81.0079
92.8089 100 79.184
94.5067 100 77.6052
94.4022 100 75.6532
96.299 100 76.3094
96.5382 100 75.2487
96.9503 100 74.2423
97.915 100 73.9431
99.13 100 73.236
101.094 100 71.5743
103.013 100 71.2499
105.723 100 69.6788
106.753 100 69.3862
107.486 100 68.4795
108.209 100 69.2602
109.479 100 69.371
110.498 100 69.8532
109.389 100 67.2775
111.373 100 64.5201
113.119 100 64.5201
115.104 100 67.2775
113.994 100 69.8532
115.014 100 69.3711
116.284 100 69.2601
117.006 100 68.4795
117.74 100 69.3863
118.769 100 69.6788
121.48 100 71.2499
123.398 100 71.5742
125.362 100 73.236
126.577 100 73.9431
127.542 100 74.2423
127.954 100 75.2487
128.193 100 76.3094
130.09 100 75.6532
129.986 100 77.6052
131.683 100 79.184
132.803 100 81.0079
134.6 100 80.8607
135.606 100 80.3999
136.737 100 80.4104
137.784 100 80.1294
138.891 100 79.6697
140.007 100 79.3267
141.277 100 79.1775
142.358 100 78.9702
144.276 100 79.1397
145.111 100 79.8449
146.118 100 79.1927
78.3858 100 80.2541
79.2359 100 80.9472
80.3926 100 80.3308
81.2367 100 79.6248
82.2578 100 80.12
83.6968 100 80.2432
84.7409 100 80.5804
85.7914 100 80.7778
86.7412 100 81.2856
87.8945 100 81.5325
88.9558 100 81.5407
90.7806 100 81.8281
92.786 100 81.1898
93.8522 100 79.7816
94.5339 100 78.8088
95.1987 100 76.5743
97.3649 100 77.0833
97.5554 100 75.8693
98.413 100 74.914
99.6444 100 74.7797
100.235 100 73.0124
102.178 100 71.9109
103.97 100 71.9675
105.153 100 71.743
106.285 100 70.6812
107.531 100 70.1084
108.517 100 70.3898
109.775 100 70.5145
111.676 100 70.1391
111.205 100 68.9697
113.287 100 68.9697
112.817 100 70.1391
114.718 100 70.5145
115.975 100 70.3897
116.962 100 70.1084
118.208 100 70.6812
119.34 100 71.7429
120.523 100 71.9675
122.314 100 71.9108
124.258 100 73.0124
124.848 100 74.7797
126.079 100 74.914
126.937 100 75.8693
127.128 100 77.0833
129.294 100 76.5743
129.959 100 78.8088
130.64 100 79.7817
131.706 100 81.1898
133.712 100 81.8281
135.537 100 81.5407
136.598 100 81.5325
137.751 100 81.2856
138.701 100 80.7778
139.752 100 80.5804
140.796 100 80.2432
142.235 100 80.12
143.256 100 79.6248
144.1 100 80.3308
145.257 100 80.9472
146.107 100 80.2541
78.2135 100 81.3166
79.3172 100 82.1386
80.153 100 81.4578
81.2459 100 81.0057
82.2512 100 81.2631
83.462 100 81.4487
84.8284 100 81.632
85.9402 100 82.2138
87.1076 100 82.4068
88.4205 100 82.562
89.5173 100 82.6943
92.1156 100 82.0836
92.9745 100 82.8156
94.075 100 80.927
95.3806 100 79.7327
96.3561 100 77.7909
97.9154 100 77.9792
98.4951 100 76.6123
99.1265 100 75.7766
100.964 100 73.8924
101.391 100 72.8238
102.605 100 72.9513
104.833 100 72.8144
106.217 100 71.8268
107.336 100 71.2473
108.916 100 71.4754
110.099 100 71.5401
110.987 100 70.9544
110.169 100 73.2722
110.983 100 72.2615
113.509 100 72.2616
114.324 100 73.2724
113.505 100 70.9544
114.393 100 71.5401
115.577 100 71.4754
117.157 100 71.2472
118.276 100 71.8268
119.66 100 72.8144
121.887 100 72.9512
123.101 100 72.8238
123.528 100 73.8923
125.366 100 75.7766
125.997 100 76.6123
126.577 100 77.9792
128.136 100 77.7909
129.112 100 79.7327
130.417 100 80.927
131.518 100 82.8156
132.377 100 82.0836
134.975 100 82.6943
136.072 100 82.562
137.385 100 82.4068
138.552 100 82.2138
139.664 100 81.632
141.03 100 81.4487
142.241 100 81.2631
143.246 100 81.0057
144.339 100 81.4578
145.175 100 82.1386
146.279 100 81.3166
78.3455 100 82.526
79.2508 100 83.3102
80.261 100 82.7932
81.2139 100 83.3602
81.04 100 82.11
82.5067 100 82.738
84.0853 100 82.611
85.1589 100 83.1165
86.1773 100 83.3265
87.4505 100 83.6302
88.556 100 83.7635
89.6826 100 83.789
90.5516 100 83.0341
91.678 100 83.6816
92.9222 100 83.9948
94.1188 100 82.5472
96.525 100 78.9457
98.9309 100 77.6767
99.5229 100 76.7413
100.4 100 75.5478
101.493 100 74.9656
102.045 100 73.872
103.621 100 73.4721
105.963 100 72.9178
107.002 100 72.7177
108.178 100 72.4046
107.26 100 73.8079
109.047 100 74.0896
110.562 100 74.4498
111.395 100 73.7762
113.098 100 73.7753
113.93 100 74.4497
115.445 100 74.0893
117.233 100 73.8078
116.314 100 72.4045
117.49 100 72.7177
118.53 100 72.9177
120.872 100 73.472
122.447 100 73.872
122.999 100 74.9656
124.092 100 75.5478
124.969 100 76.7413
125.562 100 77.6767
127.967 100 78.9457
130.374 100 82.5472
131.57 100 83.9948
132.814 100 83.6815
133.941 100 83.0341
134.81 100 83.789
135.936 100 83.7635
137.042 100 83.6302
138.315 100 83.3265
139.334 100 83.1165
140.407 100 82.611
141.986 100 82.738
143.452 100 82.11
143.279 100 83.3602
144.231 100 82.7932
145.242 100 83.3102
146.147 100 82.526
78.2364 100 83.9356
79.1868 100 84.4733
80.2215 100 84.0613
81.3294 100 84.5266
82.2362 100 83.8485
83.4155 100 83.7029
84.495 100 84.134
85.3513 100 84.7888
86.393 100 84.5496
87.6136 100 84.7758
88.7628 100 85.1104
89.7883 100 84.9012
90.8969 100 84.7384
92.0061 100 84.7229
94.1888 100 83.8749
95.1463 100 81.5078
96.8371 100 80.0775
97.6307 100 79.2519
100.04 100 78.1325
100.9 100 77.1754
102.562 100 75.4291
[...]
POINT_DATA 1600
SCALARS mass double
LOOKUP_TABLE default
1
1
1
1
1
1
1
1
1
1
1
1
1
1
1
1
1
1
1
1
1
1
1
1
1
1
1
1
1
1
1
1
1
1
1
1
1
1
1
1
1
1
1
1
1
1
1
1
1
1
1
1
1
1
1
1
1
1
1
1
1
1
1
1
1
1
1
1
1
1
1
1
1
1
1
1
1
1
1
1
1
1
1
1
1
1
1
1
1
1
1
1
1
1
1
1
1
1
1
1
1
1
1
1
1
1
1
1
1
1
1
1
1
1
1
1
1
1
1
1
1
1
1
1
1
1
1
1
1
1
1
1
1
1
1
1
1
1
1
1
1
1
1
1
1
1
1
1
1
1
1
1
1
1
1
1
1
1
1
1
1
1
1
1
1
1
1
1
1
1
1
1
1
1
1
1
1
1
1
1
1
1
1
1
1
1
1
1
1
1
1
1
1
1
1
1
1
1
1
1
1
1
1
1
1
1
1
1
1
1
1
1
1
1
1
1
1
1
1
1
1
1
1
1
1
1
1
1
1
1
1
1
1
1
1
1
1
1
1
1
1
1
1
1
1
1
1
1
1
1
1
1
1
1
1
1
1
1
1
1
1
1
1
1
1
1
1
1
1
1
1
1
1
1
1
1
1
1
1
1
1
1
1
1
1
1
1
1
1
1
1
1
1
1
1
1
1
1
1
1
1
1
1
1
1
1
1
1
1
1
1
1
1
1
1
1
1
1
1
1
1
1
1
1
1
1
1
1
1
1
1
1
1
1
1
1
1
1
1
1
1
1
1
1
1
1
1
1
1
1
1
1
1
1
1
1
1
1
1
1
1
1
1
1
1
1
1
1
1
1
1
1
1
1
1
1
1
1
1
1
1
1
1
1
1
1
1
1
1
1
1
1
1
1
1
1
1
1
1
1
1
1
1
1
1
1
1
1
1
1
1
1
1
1
1
1
1
1
1
1
1
1
1
1
1
1
1
1
1
1
1
1
1
1
1
1
1
1
1
1
1
1
1
1
1
1
1
1
1
1
1
1
1
1
1
1
1
1
1
1
1
1
1
1
1
1
1
1
1
1
1
1
1
1
1
1
1
1
1
1
1
1
1
1
1
1
1
1
1
1
1
1
1
1
1
1
1
1
1
1
1
1
1
1
1
1
1
1
1
1
1
1
1
1
1
1
1
1
1
1
1
1
1
1
1
1
1
1
1
1
1
1
1
1
1
1
1
1
1
1
1
1
1
1
1
1
1
1
1
1
1
1
1
1
1
1
1
1
1
1
1
1
1
1
1
1
1
1
1
1
1
1
1
1
1
1
1
1
1
1
1
1
1
1
1
1
1
1
1
1
1
1
1
1
1
1
1
1
1
1
1
1
1
1
1
1
1
1
1
1
1
1
1
1
1
1
1
1
1
1
1
1
1
1
1
1
1
1
1
1
1
1
1
1
1
1
1
1
1
1
1
1
1
1
1
1
1
1
1
1
1
1
1
1
1
1
1
1
1
1
1
1
1
1
1
1
1
1
1
1
1
1
1
1
1
1
1
1
1
1
1
1
1
1
1
1
1
1
1
1
1
1
1
1
1
1
1
1
1
1
1
1
1
1
1
1
1
1
1
1
1
1
1
1
1
1
1
1
1
1
1
1
1
1
1
1
1
1
1
1
1
1
1
1
1
1
1
1
1
1
1
1
1
1
1
1
1
1
1
1
1
1
1
1
1
1
1
1
1
1
1
1
1
1
1
1
1
1
1
1
1
1
1
1
1
1
1
1
1
1
1
1
1
1
1
1
1
1
1
1
1
1
1
1
1
1
1
1
1
1
1
1
1
1
1
1
1
1
1
1
1
1
1
1
1
1
1
1
1
1
1
1
1
1
1
1
1
1
1
1
1
1
1
1
1
1
1
1
1
1
1
1
1
1
1
1
1
1
1
1
1
1
1
1
1
1
1
1
1
1
1
1
1
1
1
1
1
1
1
1
1
1
1
1
1
1
1
1
1
1
1
1
1
1
1
1
1
1
1
1
1
1
1
1
1
1
1
1
1
1
1
1
1
1
1
1
1
1
1
1
1
1
1
1
1
1
1
1
1
1
1
1
1
1
1
1
1
1
1
1
1
1
1
1
1
1
1
1
1
1
1
1
1
1
1
1
1
1
1
1
1
1
1
1
1
1
1
1
1
1
1
1
1
1
1
1
1
1
1
1
1
1
1
1
1
1
1
1
1
1
1
1
1
1
1
1
1
1
1
1
1
1
1
1
1
1
1
1
1
1
1
1
1
1
1
1
1
1
1
1
1
1
1
1
1
1
1
1
1
1
1
1
1
1
1
1
1
1
1
1
1
1
1
1
1
1
1
1
1
1
1
1
1
1
1
1
1
1
1
1
1
1
1
1
1
1
1
1
1
1
1
1
1
1
1
1
1
1
1
1
1
1
1
1
1
1
1
1
1
1
1
1
1
1
1
1
1
1
1
1
1
1
1
1
1
1
1
1
1
1
1
1
1
1
1
1
1
1
1
1
1
1
1
1
1
1
1
1
1
1
1
1
1
1
1
1
1
1
1
1
1
1
1
1
1
1
1
1
1
1
1
1
1
1
1
1
1
1
1
1
1
1
1
1
1
1
1
1
1
1
1
1
1
1
1
1
1
1
1
1
1
1
1
1
1
1
1
1
1
1
1
1
1
1
1
1
1
1
1
1
1
1
1
1
1
1
1
1
1
1
1
1
1
1
1
1
1
1
1
1
1
1
1
1
1
1
1
1
1
1
1
1
1
1
1
1
1
1
1
1
1
1
1
1
1
1
1
1
1
1
1
1
1
1
1
1
1
1
1
1
1
1
1
1
1
1
1
1
1
1
1
1
1
1
1
1
1
1
1
1
1
1
1
1
1
1
1
1
1
1
1
1
1
1
1
1
1
1
1
1
1
1
1
1
1
1
1
1
1
1
1
1
1
1
1
1
1
1
1
1
1
1
1
1
1
1
1
1
1
1
1
1
1
1
1
1
1
1
1
1
1
1
1
1
1
1
1
1
1
1
1
1
1
1
1
1
1
1
1
1
1
1
1
1
1
1
1
1
1
1
1
1
1
1
1
1
1
1
1
1
1
1
1
1
1
1
1
1
1
1
1
1
1
1
1
1
1
1
1
1
1
1
1
1
1
1
1
1
1
1
1
1
1
1
1
1
1
1
1
1
1
1
1
1
1
1
1
1
1
1
1
1
1
1
1
1
1
1
1
1
1
1
1
1
1
1
1
1
1
1
1
1
1
1
1
1
1
1
1
1
1
1
1
1
1
1
1
1
1
1
1
1
1
1
1
1
1
1
1
1
1
1
1
1
1
1
1
1
1
1
1
1
1
1
1
1
1
1
1
1
1
1
1
1
1
1
1
1
1
1
1
1
1
1
1
1
1
1
1
1
1
1
1
1
1
1
1
1
1
1
1
1
1
1
1
1
1
1
1
1
1
1
1
1
1
1
1
1
1
1
1
1
1
1
1
1
1
1
1
1
1
1
1
1
1
1
1
1
1
1
1
1
1
1
1
1
1
1
1
1
1
1
1
1
1
1
1
1
1
1
1
1
1
1
1
1
1
1
1
1
1
1
1
1
1
1
1
1
1
1
VECTORS force double
9.34143 0 13.3646
-27.9592 0 -4.00946
41.8494 0 22.8957
-16.4491 0 20.5815
35.3819 0 -7.7192
25.092 0 -21.6038
-12.8424 0 1.59514
6.51332 0 23.2115
-4.9039 0 11.6664
-8.56919 0 9.63565
-10.0321 0 0.574816
18.6797 0 15.6584
6.74213 0 3.84133
5.93831 0 -1.54371
10.7526 0 15.5327
18.9347 0 1.82983
1.72544 0 20.8482
-13.318 0 7.90696
-0.649511 0 1.35152
-7.2686 0 -26.5928
8.95641 0 16.5438
10.5532 0 9.90767
-4.43694 0 -9.88458
-2.52361 0 -24.1734
-24.8011 0 14.8098
-8.24232 0 14.888
4.29125 0 37.0673
17.8145 0 -30.793
0.273523 0 14.9923
-45.6608 0 2.34908
45.6607 0 2.34911
-0.273311 0 14.9924
-17.8149 0 -30.7965
-4.29125 0 37.0709
8.24234 0 14.888
24.8016 0 14.8099
2.5236 0 -24.1734
4.43694 0 -9.88459
-10.5532 0 9.90767
-8.9564 0 16.5438
7.26933 0 -26.5916
0.649509 0 1.35153
13.3181 0 7.90641
-1.72542 0 20.8483
-18.9346 0 1.82979
-10.7526 0 15.5327
-5.93834 0 -1.54364
-6.74209 0 3.84136
-18.6795 0 15.6583
10.0319 0 0.574881
8.56918 0 9.63566
4.90385 0 11.6664
-6.51336 0 23.2115
12.8424 0 1.59515
-25.0921 0 -21.6038
-35.3819 0 -7.71918
16.4491 0 20.5815
-41.8493 0 22.8957
27.9592 0 -4.00946
-9.34142 0 13.3646
9.9729 0 4.19255
-9.00057 0 -44.7182
-34.4259 0 -29.9711
25.0898 0 30.0328
-26.3981 0 25.642
30.878 0 -72.5696
6.86656 0 -18.4613
-23.3756 0 -52.9248
-6.40595 0 -3.80261
18.9733 0 -45.0384
-12.8981 0 -4.89588
-8.63522 0 -78.3447
-10.0749 0 8.15098
12.507 0 -0.34841
-24.8796 0 18.6535
-12.0437 0 13.642
3.47305 0 -24.6603
12.5574 0 -10.0199
12.4084 0 47.0953
32.0725 0 -16.0805
8.36001 0 -19.6718
0 0 0
10.0452 0 -4.67149
-4.43175 0 -10.4816
24.9455 0 13.544
-4.51307 0 -13.551
6.25583 0 -0.750225
6.88041 0 3.83697
-18.7633 0 1.5944
0.927583 0 -96.429
-0.926521 0 -96.4289
18.763 0 1.59386
-6.88021 0 3.83701
-6.25599 0 -0.750201
4.51319 0 -13.551
-24.946 0 13.5441
4.43371 0 -10.4806
-10.0455 0 -4.67152
0 0 0
-8.36001 0 -19.6718
-32.0699 0 -16.0771
-12.4082 0 47.0952
-12.5589 0 -10.0217
-3.47284 0 -24.6618
12.0437 0 13.6419
24.8824 0 18.6554
-12.5069 0 -0.348363
10.0734 0 8.15062
8.6359 0 -78.3463
12.898 0 -4.8959
-18.9734 0 -45.038
6.40592 0 -3.80242
23.3756 0 -52.9249
-6.86656 0 -18.4613
-30.8781 0 -72.5697
26.3981 0 25.6421
-25.0899 0 30.0328
34.4259 0 -29.9711
9.00054 0 -44.7182
-9.9729 0 4.19255
-24.959 0 6.63948
48.4983 0 23.6563
1.07137 0 20.1132
-11.9909 0 -5.19402
7.94526 0 -11.3593
-33.5272 0 59.4687
5.90856 0 39.295
25.8421 0 -6.54523
18.4563 0 51.1336
-41.8872 0 13.6772
18.4813 0 31.0707
-14.2037 0 4.45102
27.5988 0 61.3022
-13.5651 0 -5.93065
11.7227 0 -55.3289
22.8897 0 16.4941
8.72268 0 -2.30976
-35.9717 0 4.06856
19.5067 0 10.7688
-29.8373 0 39.8593
-10.1464 0 11.9449
-4.90984 0 12.5933
-44.6906 0 -20.6246
19.9522 0 -10.1636
0.535639 0 2.14686
1.70189 0 -1.57112
4.16155 0 6.7642
4.883 0 20.8397
4.82999 0 -6.28105
-24.624 0 86.9265
24.623 0 86.9264
-4.83157 0 -6.28196
-4.88099 0 20.8431
-4.18666 0 6.71571
-1.65802 0 -1.48308
-0.535538 0 2.14624
-19.946 0 -10.1683
44.6915 0 -20.6318
4.90972 0 12.5938
10.1463 0 11.9451
29.8344 0 39.8565
-19.5053 0 10.7695
35.9719 0 4.06834
-8.7231 0 -2.30836
-22.8928 0 16.4947
-11.7229 0 -55.3279
13.5654 0 -5.93038
-27.5977 0 61.3031
14.2029 0 4.45061
-18.4812 0 31.0704
41.8873 0 13.6769
-18.4564 0 51.1336
-25.8421 0 -6.54528
-5.90857 0 39.2951
33.5273 0 59.4688
-7.94519 0 -11.3593
11.9908 0 -5.19401
-1.07137 0 20.1132
-48.4983 0 23.6563
24.9591 0 6.6395
-21.2493 0 10.4889
49.151 0 -42.2804
4.01558 0 -4.47859
-6.80021 0 8.50288
-2.10924 0 4.74631
-4.46834 0 -43.4558
-8.06636 0 -1.01365
-22.3425 0 8.16641
20.6699 0 2.07199
1.64815 0 23.4082
2.1007 0 -6.12457
56.2359 0 -21.4231
-22.6428 0 10.3367
-5.5348 0 27.0907
-30.541 0 -75.1859
-20.8772 0 30.9425
8.49486 0 -23.3464
-2.02724 0 -16.6114
-4.84477 0 -17.931
14.896 0 7.93609
-47.3196 0 11.7938
-3.21406 0 -4.41967
11.7661 0 -2.87413
1.43769 0 10.3581
31.1005 0 50.447
-4.33566 0 -38.4956
6.25012 0 -17.907
-8.51769 0 7.17059
-3.81995 0 5.46123
-70.9118 0 -4.44407
70.9116 0 -4.44418
3.82063 0 5.46294
8.51956 0 7.17219
-6.23846 0 -17.8804
4.34437 0 -38.5176
-31.106 0 50.4606
-1.43427 0 10.3576
-11.765 0 -2.87424
3.213 0 -4.41957
47.3132 0 11.7926
-14.898 0 7.93663
4.8446 0 -17.9296
2.02577 0 -16.6083
-8.49485 0 -23.3505
20.8803 0 30.9467
30.5457 0 -75.1888
5.53576 0 27.0927
22.6443 0 10.3389
-56.2362 0 -21.4234
-2.1008 0 -6.12436
-1.64821 0 23.4082
-20.6695 0 2.07185
22.3423 0 8.16655
8.06643 0 -1.01355
4.46832 0 -43.4558
2.10923 0 4.74634
6.8002 0 8.50288
-4.01558 0 -4.4786
-49.151 0 -42.2804
21.2493 0 10.4889
-45.3057 0 6.33444
1.40276 0 -19.0573
29.4304 0 -2.40757
-0.449299 0 -5.37664
19.2313 0 19.6082
-2.69657 0 55.3421
1.44869 0 -0.817562
-24.471 0 -10.1198
12.9603 0 2.09786
-12.6199 0 -5.52076
-37.1895 0 34.4811
-17.9024 0 -4.65071
10.434 0 3.76496
6.38177 0 -1.5697
43.5414 0 88.2636
5.14078 0 13.7253
17.7485 0 -5.65446
-89.4759 0 32.2807
94.3709 0 -34.5345
-13.8654 0 -5.63176
45.1878 0 -3.67786
25.9624 0 -11.1982
-19.2128 0 -1.28542
2.64528 0 -38.0221
-9.13203 0 9.17887
30.4259 0 28.6956
-14.4312 0 -2.23737
140.44 0 -106.682
-14.6074 0 10.7069
1.5082 0 0.672009
-1.50831 0 0.671887
14.6043 0 10.7079
-140.415 0 -106.661
14.4293 0 -2.24351
-30.481 0 28.6902
9.13235 0 9.13092
-2.64473 0 -38.022
19.2139 0 -1.28547
-25.9599 0 -11.1961
-45.1775 0 -3.67729
13.8667 0 -5.63193
-94.3787 0 -34.5375
89.4868 0 32.2799
-17.7492 0 -5.65382
-5.14438 0 13.7258
-43.5475 0 88.2601
-6.38175 0 -1.56989
-10.4362 0 3.76421
17.9038 0 -4.65097
37.1898 0 34.4814
12.6199 0 -5.5209
-12.9603 0 2.09788
24.4709 0 -10.1199
-1.44869 0 -0.817534
2.69654 0 55.342
-19.2313 0 19.6082
0.449377 0 -5.37662
-29.4305 0 -2.40753
-1.40281 0 -19.0574
45.3058 0 6.33442
-19.4741 0 12.0797
-5.48546 0 -9.97572
-28.433 0 -2.47222
3.32823 0 0.483683
2.68624 0 -2.96604
-13.6393 0 -8.05015
-16.3671 0 -56.4
0.167951 0 8.10689
28.9574 0 15.9201
-41.62 0 4.25625
38.224 0 5.33035
3.33487 0 -4.05817
14.7417 0 -4.11104
0.685958 0 -4.17914
1.31675 0 6.46294
-8.63595 0 -11.1478
-23.9524 0 -49.1503
-0.665805 0 5.4387
5.89058 0 17.561
-23.3382 0 -18.3295
10.4069 0 -10.3179
-34.418 0 22.1007
6.01364 0 6.22669
-29.4323 0 1.58912
14.6363 0 -3.47367
-65.1594 0 20.5729
81.9201 0 16.6469
-144.358 0 96.9179
5.94892 0 -33.7905
-6.03493 0 11.0569
6.02515 0 11.0365
-5.97605 0 -33.82
144.354 0 96.9041
-81.908 0 16.6393
65.1337 0 20.598
-14.628 0 -3.48045
29.4343 0 1.60207
-6.01696 0 6.22914
34.4115 0 22.1022
-10.4065 0 -10.3222
23.3383 0 -18.3326
-5.88836 0 17.5585
0.666169 0 5.43825
23.9401 0 -49.1315
8.63741 0 -11.1474
-1.31663 0 6.4632
-0.686016 0 -4.17887
-14.7427 0 -4.11012
-3.33487 0 -4.0581
-38.2241 0 5.33026
41.6199 0 4.25633
-28.9576 0 15.9202
-0.167813 0 8.10682
16.3672 0 -56.4
13.6392 0 -8.05012
-2.68624 0 -2.96604
-3.32824 0 0.483628
28.4331 0 -2.47224
5.48554 0 -9.97559
19.4741 0 12.0797
-5.67065 0 40.7202
27.1792 0 -8.53225
55.3885 0 2.0404
-46.484 0 -16.2148
61.6769 0 17.5221
5.11645 0 -4.01308
8.14271 0 46.0636
-0.439298 0 -8.27321
-0.286617 0 2.08006
-18.6246 0 2.93299
-13.8323 0 -17.6474
-12.8972 0 -2.32733
6.10081 0 8.2801
-1.03903 0 1.5746
-0.901219 0 -8.34302
12.0314 0 -4.86037
-8.99876 0 57.7058
-103.729 0 34.8011
15.1484 0 -81.3468
-16.5145 0 3.53236
9.73781 0 -2.69142
4.84486 0 -14.2603
-11.6889 0 0.170171
43.4899 0 -0.606689
-7.41726 0 0.379527
5.47287 0 -8.42494
-25.5793 0 37.3862
-8.06546 0 -0.172587
12.8253 0 9.63463
-10.0609 0 -1.65118
10.0627 0 -1.64351
-12.8053 0 9.66494
8.11456 0 -0.13243
25.5448 0 37.3883
-5.46887 0 -8.4413
7.41995 0 0.386175
-43.4964 0 -0.629617
11.7003 0 0.151774
-4.83559 0 -14.27
-9.73628 0 -2.69109
16.4972 0 3.53623
-15.1431 0 -81.346
103.727 0 34.7966
9.02504 0 57.6908
-12.0321 0 -4.86168
0.901002 0 -8.34282
1.03903 0 1.57424
-6.10093 0 8.28037
12.897 0 -2.3285
13.8333 0 -17.6475
18.6238 0 2.9331
0.286695 0 2.08006
0.439299 0 -8.27288
-8.14266 0 46.0635
-5.11647 0 -4.01307
-61.6769 0 17.5221
46.4839 0 -16.2148
-55.3885 0 2.04045
-27.1792 0 -8.53227
5.67057 0 40.7201
-33.4669 0 19.2311
-3.4705 0 2.98351
-56.6584 0 35.7738
1.42118 0 3.6706
56.51 0 -24.4403
0.354044 0 4.95604
3.46501 0 -1.07047
-61.1128 0 -15.1437
69.7098 0 16.225
-16.7224 0 -6.9303
4.35787 0 0.437544
4.67479 0 4.01839
20.5195 0 3.83028
-5.28133 0 -10.1223
1.25542 0 2.57543
-36.0381 0 -12.7798
2.14595 0 5.34057
32.7518 0 2.938
90.2398 0 51.0425
11.053 0 16.0189
2.13427 0 -13.5859
-39.8726 0 -9.28398
-73.0861 0 -106.255
-37.4543 0 11.8763
37.5666 0 -22.7323
-10.1669 0 -8.65713
-4.52278 0 7.01393
3.81425 0 4.28044
-28.7208 0 19.8895
11.6291 0 -10.9125
-11.5457 0 -10.9097
28.7171 0 19.8254
-3.7669 0 4.35395
4.52777 0 7.03456
10.1652 0 -8.65469
-37.5423 0 -22.7485
37.4311 0 11.8996
73.0773 0 -106.242
39.8954 0 -9.2913
-2.13359 0 -13.5874
-11.0534 0 16.0209
-90.2343 0 51.0663
-32.7756 0 2.91895
-2.14291 0 5.34127
36.0388 0 -12.7799
-1.25495 0 2.57541
5.28038 0 -10.1211
-20.5196 0 3.83016
-4.67473 0 4.01803
-4.35762 0 0.4375
16.7221 0 -6.93021
-69.7097 0 16.2247
61.1126 0 -15.1437
-3.46499 0 -1.07045
-0.354119 0 4.95591
-56.51 0 -24.4403
-1.42122 0 3.67061
56.6583 0 35.7738
3.47049 0 2.98349
33.4669 0 19.231
1.44252 0 -14.953
-19.2941 0 -27.482
10.6238 0 -15.2169
-10.7467 0 -1.90525
6.55867 0 -3.06948
-2.30204 0 -6.66381
-21.8808 0 -20.0074
-11.1452 0 25.4459
41.7681 0 -9.58794
0.503588 0 4.45581
-77.3834 0 -31.0087
44.1004 0 10.893
-0.0637201 0 3.89343
8.22381 0 11.4986
-49.5278 0 -11.7253
-6.96345 0 0.21476
1.4584 0 -4.11219
-4.05818 0 -24.5009
2.3239 0 -7.96208
-51.2881 0 2.12095
-35.5682 0 67.3123
79.6668 0 -45.3972
54.5258 0 110.953
8.03384 0 -11.2344
9.61715 0 -0.29772
-48.9561 0 -30.3812
-6.59733 0 3.36994
5.48806 0 3.04447
8.22403 0 -7.6527
-5.26804 0 1.38675
5.18699 0 1.44841
-8.21904 0 -7.6466
-5.47982 0 3.03668
6.49336 0 3.25477
48.9767 0 -30.3866
-9.60147 0 -0.283439
-8.035 0 -11.2352
-54.5241 0 110.945
-79.673 0 -45.4063
35.5912 0 67.3211
51.3034 0 2.11756
-2.32557 0 -7.97042
4.04828 0 -24.4879
-1.45137 0 -4.11212
6.96409 0 0.21463
49.5416 0 -11.7284
-8.22413 0 11.4977
0.0636164 0 3.89368
-44.1008 0 10.8933
77.3837 0 -31.0077
-0.503469 0 4.45577
-41.7683 0 -9.58797
11.1454 0 25.446
21.8808 0 -20.0074
2.30205 0 -6.66387
-6.55843 0 -3.06926
10.7466 0 -1.90539
-10.6237 0 -15.2169
19.2938 0 -27.4817
-1.44246 0 -14.953
10.3627 0 -15.2903
-14.6746 0 38.1073
61.339 0 17.0628
-20.5059 0 3.24693
-0.682965 0 -6.59045
8.47457 0 3.39479
-3.23217 0 -4.81331
1.45155 0 -1.82417
-3.88807 0 3.73898
7.56438 0 -3.93305
4.57772 0 -2.54034
15.4273 0 33.7995
-18.1914 0 -3.40053
12.7332 0 -10.4385
6.53459 0 19.2854
21.5749 0 -47.2028
28.3486 0 -22.7177
-1.74867 0 -0.935295
-3.19426 0 -5.77777
-18.5269 0 -20.9189
-0.19452 0 -8.40653
36.2737 0 14.4259
17.9228 0 -42.8066
5.66754 0 19.206
31.985 0 -7.76616
-1.20851 0 14.9649
-33.3974 0 -7.17796
63.9129 0 27.5241
-33.6701 0 -21.8904
-13.4458 0 3.31011
13.5563 0 3.48014
33.8787 0 -22.0531
-63.9286 0 27.5562
33.5116 0 -7.20657
1.21687 0 14.9672
-32.009 0 -7.74442
-5.77992 0 19.1891
-17.9124 0 -42.6277
-36.286 0 14.4274
0.193209 0 -8.38452
18.5587 0 -20.9496
3.19633 0 -5.77685
1.74778 0 -0.936442
-28.3556 0 -22.7257
-21.5758 0 -47.2043
-6.53391 0 19.2844
-12.7337 0 -10.4385
18.192 0 -3.40052
-15.4274 0 33.7985
-4.57764 0 -2.54027
-7.56438 0 -3.93305
3.88794 0 3.73901
-1.45171 0 -1.8244
3.23227 0 -4.81335
-8.47454 0 3.39483
0.682949 0 -6.59026
20.5057 0 3.24688
-61.3387 0 17.0626
14.6746 0 38.1071
-10.3628 0 -15.2902
-25.8187 0 23.3765
19.9492 0 -0.213877
-23.7281 0 11.0427
-9.92537 0 -20.1233
-6.36143 0 -10.0136
16.6085 0 19.1031
-6.34864 0 1.52114
-0.422377 0 -0.623028
-10.8189 0 1.50048
-25.1834 0 9.34393
28.4448 0 -11.0533
-0.645215 0 9.06326
-46.1051 0 1.72805
41.3727 0 -3.45517
-18.6916 0 -17.2739
-10.0598 0 -3.60056
23.1034 0 80.2505
-14.1488 0 4.63403
-8.60178 0 4.59767
8.0667 0 6.67868
3.04049 0 8.29293
8.39581 0 10.6566
-35.8875 0 -9.10507
-21.7001 0 31.5033
-48.1554 0 -22.3644
-29.471 0 -4.76973
6.97387 0 -26.7628
29.3831 0 2.12017
-4.52294 0 -5.26592
41.3687 0 13.2045
-41.646 0 13.2601
4.49451 0 -5.29282
-29.4174 0 2.12454
-7.03354 0 -26.7878
29.4925 0 -4.75514
48.137 0 -22.298
21.7668 0 31.3288
35.8633 0 -9.09502
-8.38516 0 10.6294
-3.03997 0 8.2969
-8.06476 0 6.66741
8.60179 0 4.5987
14.1476 0 4.63745
-23.1045 0 80.2528
10.0595 0 -3.60057
18.691 0 -17.274
-41.3723 0 -3.45495
46.107 0 1.72338
0.6451 0 9.06334
-28.4444 0 -11.0539
25.1839 0 9.34372
10.8191 0 1.5004
0.422394 0 -0.622888
6.34861 0 1.52128
-16.6083 0 19.103
6.36132 0 -10.0136
9.92541 0 -20.1232
23.7281 0 11.0426
-19.9491 0 -0.213772
25.8189 0 23.3764
21.8411 0 -11.9409
-21.8085 0 -107.3
15.4846 0 101.648
9.68284 0 4.18355
16.5623 0 -4.93832
8.98471 0 1.92506
-12.0173 0 6.11593
8.52476 0 2.88869
-5.30093 0 4.73489
13.6686 0 -5.44953
-4.97011 0 -0.635691
-5.26399 0 -15.3264
-32.7635 0 3.48855
34.8524 0 4.52831
4.23174 0 -6.19685
13.5667 0 26.1166
-5.85583 0 5.63112
19.9804 0 14.8504
16.5927 0 0.785229
7.54626 0 6.12633
25.3682 0 6.99772
-4.56932 0 0.428979
-9.52755 0 9.34353
-21.3733 0 16.7413
-44.7993 0 -8.80293
91.9239 0 -48.8308
3.48406 0 13.9716
23.2447 0 -7.32409
2.48993 0 7.25979
3.92638 0 -12.3009
-3.95923 0 -12.4188
-2.42492 0 7.12386
-23.2417 0 -7.296
-3.47663 0 13.9531
-91.9013 0 -48.8836
44.8329 0 -8.8362
21.3709 0 16.7636
9.53543 0 9.34663
4.57148 0 0.431877
-25.4011 0 7.02981
-7.55137 0 6.12069
-16.587 0 0.790933
-19.9847 0 14.8569
5.85577 0 5.63158
-13.567 0 26.1169
-4.23247 0 -6.19743
-34.8549 0 4.53272
32.7649 0 3.48905
5.26411 0 -15.3269
4.9704 0 -0.635646
-13.6686 0 -5.44953
5.30121 0 4.73479
-8.52494 0 2.88884
12.0173 0 6.11603
-8.98464 0 1.92499
-16.5622 0 -4.93832
-9.68279 0 4.18361
-15.4846 0 101.648
21.8083 0 -107.3
-21.8411 0 -11.9411
3.6251 0 -4.16009
23.2261 0 -4.41395
-27.3688 0 -9.53147
18.7153 0 1.86227
1.63566 0 12.0486
-34.2461 0 -0.163012
-6.57799 0 1.59513
51.1743 0 16.2948
19.2773 0 -41.0525
-26.955 0 -8.58316
23.0481 0 -16.6
-20.713 0 -36.0089
15.3434 0 17.1273
-7.8031 0 -2.06423
6.85399 0 -3.4148
-5.46337 0 -30.7769
-2.13307 0 0.683612
-10.6398 0 7.01376
-54.8604 0 -50.4305
26.8193 0 -2.55315
0.198738 0 -13.2739
-5.5542 0 3.66427
-11.2202 0 5.00687
11.495 0 -1.30925
21.9223 0 72.9485
-60.1728 0 19.224
23.7464 0 -17.7815
-0.161138 0 11.6005
-6.14124 0 -9.21188
-5.76293 0 19.7059
5.79069 0 19.7766
6.16054 0 -9.23293
0.161295 0 11.5694
-23.7712 0 -17.7996
60.2122 0 19.2037
-21.9533 0 72.9565
-11.4935 0 -1.30271
11.2255 0 5.00496
5.55528 0 3.66616
-0.184854 0 -13.2967
-26.8364 0 -2.5672
54.8798 0 -50.4178
10.6401 0 7.01277
2.13371 0 0.683435
5.46534 0 -30.7825
-6.85321 0 -3.41516
7.8038 0 -2.06487
-15.3444 0 17.1284
20.7131 0 -36.0098
-23.0503 0 -16.5982
26.9567 0 -8.58354
-19.2774 0 -41.0526
-51.1735 0 16.2947
6.57775 0 1.5951
34.2454 0 -0.162816
-1.63558 0 12.0486
-18.7153 0 1.8622
27.3689 0 -9.53156
-23.2261 0 -4.41372
-3.6251 0 -4.16029
8.33165 0 5.86769
2.95423 0 2.72333
-10.8515 0 -95.4223
23.9383 0 8.76835
-28.3581 0 -9.67027
28.2331 0 -21.8654
-16.5055 0 -0.297
3.16159 0 13.7914
-43.5804 0 19.2276
49.4492 0 -17.6917
19.5754 0 25.9537
22.0804 0 33.4136
6.5976 0 -3.51796
-38.6666 0 10.4308
-82.7442 0 12.3051
86.0941 0 0.208475
1.09568 0 7.86747
3.93586 0 0.615047
-32.8569 0 -21.4155
54.343 0 43.1559
8.80965 0 15.6617
-81.8835 0 1.86091
32.9241 0 -25.6218
-37.9698 0 10.8646
-33.759 0 -55.9021
-4.09611 0 7.43612
18.98 0 -3.09612
-8.55088 0 -5.57659
-8.04365 0 -13.2504
-1.85568 0 4.84697
1.73318 0 5.03241
8.16175 0 -13.3398
8.55345 0 -5.59214
-18.9992 0 -3.05875
4.11255 0 7.41729
33.7342 0 -55.8732
37.9571 0 10.8331
-32.9214 0 -25.6147
81.8764 0 1.85816
-8.81342 0 15.6566
-54.341 0 43.1576
32.8471 0 -21.4135
-3.93658 0 0.615646
-1.09552 0 7.86593
-86.1528 0 0.225753
82.802 0 12.2981
38.6825 0 10.4326
-6.59833 0 -3.52013
-22.0807 0 33.4146
-19.5749 0 25.9527
-49.4493 0 -17.6917
43.5805 0 19.2276
-3.16152 0 13.7914
16.5054 0 -0.297152
-28.233 0 -21.8656
28.3581 0 -9.67021
-23.9384 0 8.76836
10.8515 0 -95.4219
-2.95428 0 2.72341
-8.33163 0 5.86773
16.5842 0 -118.398
-54.8649 0 -32.1826
12.9151 0 49.4118
60.2839 0 -8.45912
-72.8797 0 -14.7363
47.0334 0 -10.2255
-29.6788 0 22.7094
20.776 0 -9.74009
-25.9898 0 -68.141
22.1167 0 -4.73866
-1.66411 0 -4.87525
14.5529 0 -36.749
21.3632 0 -49.4144
10.6606 0 -18.1993
-13.7656 0 -48.6831
-35.0422 0 -51.1113
31.1858 0 -10.4446
-19.8828 0 -53.9128
2.21778 0 30.6379
17.828 0 -16.2657
3.14644 0 -9.15022
25.2001 0 23.6245
-1.11741 0 -4.65008
18.3432 0 -17.6959
13.1842 0 45.1514
-7.2549 0 -35.8041
26.5555 0 25.0757
4.24323 0 5.56677
12.249 0 15.4204
-16.6135 0 -12.4209
16.6202 0 -12.4192
-12.3905 0 15.5079
-4.21999 0 5.56527
-26.5398 0 25.0496
7.23504 0 -35.7955
-13.1801 0 45.1263
-18.3367 0 -17.6629
1.14841 0 -4.63867
-25.2383 0 23.6613
-3.14953 0 -9.15142
-17.8309 0 -16.265
-2.21582 0 30.6407
19.8637 0 -53.9028
-31.2056 0 -10.4482
35.0457 0 -51.1173
13.7692 0 -48.6853
-10.663 0 -18.2026