# vtk DataFile Version 3.0
SiWiRVisFile
ASCII
DATASET UNSTRUCTURED_GRID
POINTS 1600 DOUBLE
77.0931 100 73.1306
77.649 100 74.1511
78.5811 100 74.6758
80.4054 100 74.509
81.4393 100 74.8492
82.5356 100 75.3167
84.5738 100 75.1968
85.5878 100 75.3938
86.5885 100 75.7469
85.0317 100 74.212
90.8015 100 74.6203
91.6169 100 73.5634
89.5167 100 74.0271
89.282 100 72.6436
89.1849 100 71.5021
92.5481 100 65.6268
93.0984 100 66.7292
95.029 100 64.8415
92.797 100 61.6144
97.0597 100 63.4556
104.321 100 49.1107
104.567 100 51.9575
105.365 100 51.1482
106.496 100 50.4596
105.137 100 49.9962
108.121 100 50.5373
109.962 100 45.7378
111.015 100 45.7677
110.252 100 46.8523
111.623 100 46.6034
112.866 100 46.5989
114.239 100 46.8438
113.483 100 45.7722
114.533 100 45.7347
116.371 100 50.5352
119.355 100 49.9966
117.997 100 50.4598
119.128 100 51.1487
119.926 100 51.9576
120.171 100 49.11
127.442 100 63.4597
131.695 100 61.6145
129.535 100 64.8503
131.39 100 66.7388
131.951 100 65.6285
135.309 100 71.5041
135.217 100 72.6454
134.983 100 74.0419
132.877 100 73.5646
133.69 100 74.6201
139.461 100 74.212
137.904 100 75.7472
138.905 100 75.3938
139.919 100 75.1967
141.957 100 75.3167
143.053 100 74.8492
144.087 100 74.5091
145.911 100 74.6758
146.843 100 74.1511
147.399 100 73.1306
76.5865 100 74.5661
77.5831 100 75.2419
79.5028 100 75.1842
80.6381 100 75.6373
81.6912 100 75.9958
83.5203 100 75.8221
84.6148 100 76.2116
85.7026 100 76.5355
86.7396 100 76.8028
87.8114 100 76.8656
88.9715 100 77.0164
92.689 100 73.0504
90.4365 100 72.9193
91.1825 100 71.5083
92.3583 100 68.5056
90.1994 100 71.9193
93.7056 100 65.6037
96.1803 100 64.0043
97.0214 100 64.8589
99.1839 100 64.1681
104.257 100 50.9477
98.9668 100 56.4063
105.345 100 57.5898
110.252 100 49.5512
106.062 100 49.3717
108.59 100 51.7259
109.203 100 50.0827
109.294 100 48.7607
108.623 100 46.3535
111.402 100 47.7978
113.088 100 47.7969
115.864 100 46.349
115.192 100 48.7628
115.289 100 50.0835
115.901 100 51.7236
118.43 100 49.3717
114.265 100 49.5655
119.036 100 57.5795
125.526 100 56.4063
120.236 100 50.9479
125.302 100 64.1736
127.437 100 64.8768
128.313 100 64.0189
130.784 100 65.6032
134.299 100 71.9143
132.135 100 68.5045
133.309 100 71.5035
134.059 100 72.9144
131.805 100 73.0513
135.52 100 77.024
136.68 100 76.864
137.753 100 76.8033
138.79 100 76.5357
139.877 100 76.2111
140.972 100 75.8219
142.801 100 75.9959
143.854 100 75.6372
144.99 100 75.1843
146.909 100 75.242
147.906 100 74.5661
76.5198 100 75.7025
77.6552 100 76.3618
78.5424 100 75.7631
79.6286 100 76.2714
80.6884 100 76.6825
82.6515 100 76.4871
83.6891 100 76.9434
84.8094 100 77.2897
85.8951 100 77.6185
87.0502 100 78.027
88.11 100 78.0793
89.2357 100 78.1756
91.1116 100 77.4252
91.7031 100 72.4965
93.0751 100 70.0093
93.6426 100 68.9884
94.1799 100 66.8208
94.8758 100 65.9887
96.0957 100 65.3285
98.3091 100 63.558
99.2451 100 62.7955
103.479 100 59.336
105.645 100 58.7633
106.745 100 58.3508
105.676 100 55.0774
107.001 100 57.212
107.101 100 56.0535
105.925 100 56.5828
110.354 100 48.4489
111.671 100 48.8488
112.829 100 48.8469
114.127 100 48.4633
118.563 100 56.5356
117.299 100 56.0308
117.498 100 57.1757
118.856 100 55.147
117.743 100 58.3796
118.858 100 58.7798
120.995 100 59.354
125.25 100 62.8063
126.175 100 63.5346
128.391 100 65.2747
129.598 100 65.9883
130.283 100 66.8278
130.864 100 68.9802
131.425 100 70.0108
132.793 100 72.4985
133.4 100 77.4133
135.257 100 78.1722
136.383 100 78.0796
137.443 100 78.0279
138.597 100 77.6195
139.683 100 77.2893
140.804 100 76.943
141.841 100 76.487
143.804 100 76.6824
144.864 100 76.2715
145.95 100 75.7632
146.837 100 76.3618
147.973 100 75.7024
76.6651 100 76.81
77.6103 100 77.5037
78.6235 100 76.8449
79.7023 100 77.4067
81.7271 100 77.2871
82.7847 100 77.5964
83.9008 100 78.1237
84.9536 100 78.4375
86.2154 100 78.7233
87.3644 100 79.1057
88.7495 100 79.3949
89.8567 100 79.3318
90.6081 100 78.4824
92.9225 100 72.0136
92.3927 100 70.9669
94.3087 100 70.116
95.0558 100 68.9622
94.448 100 68.0346
95.3102 100 67.0769
96.3976 100 66.558
97.5096 100 66.3748
100.363 100 64.6457
104.558 100 58.6388
105.194 100 61.1406
105.339 100 60.1066
106.543 100 59.6301
108.963 100 59.2798
110.207 100 59.1044
108.153 100 56.8757
111.326 100 50.0742
113.165 100 50.0724
116.361 100 56.8965
114.256 100 59.0843
115.488 100 59.253
117.951 100 59.6218
119.225 100 60.0826
119.284 100 61.1445
119.927 100 58.6912
124.174 100 64.6799
126.975 100 66.3818
128.083 100 66.5438
129.177 100 67.0749
130.026 100 68.0293
129.408 100 68.9451
130.201 100 70.1095
132.11 100 70.9707
131.576 100 72.0154
133.882 100 78.4829
134.635 100 79.327
135.742 100 79.3949
137.128 100 79.1093
138.277 100 78.723
139.539 100 78.4375
140.592 100 78.123
141.708 100 77.5963
142.765 100 77.2871
144.79 100 77.4067
145.869 100 76.845
146.882 100 77.5037
147.827 100 76.8099
76.5433 100 77.9577
77.6015 100 78.5872
78.6329 100 78.188
80.7552 100 77.9113
81.8904 100 78.3821
83.083 100 79.1296
84.1503 100 79.3134
85.5535 100 79.4951
86.5227 100 79.895
88.0009 100 80.1428
88.7708 100 80.9683
90.9034 100 79.4183
91.927 100 78.3522
94.5158 100 71.6467
93.6114 100 71.084
96.1092 100 70.3539
96.1463 100 69.2717
95.9513 100 67.9616
97.1923 100 67.5575
98.3711 100 67.0437
98.4177 100 65.2335
102.978 100 64.8712
106.261 100 61.24
107.386 100 60.4149
107.499 100 59.1738
108.638 100 60.4182
109.785 100 60.1098
110.457 100 61.1673
107.871 100 57.9962
111.607 100 51.6575
112.881 100 51.6469
116.64 100 57.9945
113.965 100 61.0421
114.709 100 60.0696
115.906 100 60.6673
117.019 100 59.1787
117.012 100 60.4967
118.185 100 61.3332
121.547 100 64.8611
126.111 100 65.2206
126.154 100 67.0648
127.32 100 67.537
128.536 100 67.9715
128.296 100 69.3105
128.394 100 70.4049
130.881 100 71.0796
130.024 100 71.667
132.595 100 78.3548
133.589 100 79.419
135.721 100 80.963
136.489 100 80.1426
137.971 100 79.8965
138.94 100 79.4937
140.342 100 79.3128
141.409 100 79.1294
142.602 100 78.382
143.737 100 77.9113
145.859 100 78.1881
146.891 100 78.5872
147.949 100 77.9578
76.6395 100 79.1603
77.6849 100 79.7124
78.79 100 79.2899
79.7782 100 78.443
80.7462 100 79.0968
81.897 100 79.4992
82.9219 100 80.1841
84.5397 100 80.336
85.4592 100 80.8055
86.5405 100 81.0003
87.6059 100 81.1111
89.8051 100 80.4422
91.7648 100 80.077
91.8836 100 76.4431
93.0085 100 76.192
95.1974 100 70.8243
97.0015 100 71.1138
97.2643 100 69.8069
97.0643 100 68.5654
99.1814 100 67.7321
99.1572 100 66.0688
101.402 100 65.3957
103.761 100 63.988
105.054 100 63.7508
105.72 100 62.1825
107.341 100 61.6476
108.465 100 62.156
109.223 100 61.35
111.565 100 61.495
111.708 100 59.612
112.763 100 59.592
112.987 100 61.6221
115.073 100 61.4522
116.077 100 62.0555
117.146 100 61.6565
118.892 100 62.1407
119.331 100 63.8303
120.728 100 64.0059
123.081 100 65.3754
125.347 100 66.0393
125.285 100 67.6981
127.341 100 68.563
127.286 100 69.8605
127.46 100 70.9884
129.342 100 70.832
131.487 100 76.1935
132.6 100 76.4488
132.727 100 80.0806
134.695 100 80.4412
136.893 100 81.1024
137.953 100 81.0012
139.033 100 80.8074
139.953 100 80.336
141.571 100 80.1838
142.596 100 79.4992
143.746 100 79.0968
144.714 100 78.4429
145.702 100 79.2899
146.808 100 79.7124
147.853 100 79.16
76.0919 100 80.1544
77.1673 100 80.6683
78.994 100 80.3839
79.8242 100 79.666
80.8149 100 80.3868
81.6702 100 81.4006
83.5693 100 81.1031
84.624 100 81.6119
85.7044 100 81.8242
86.8981 100 82.0421
87.9292 100 82.0721
90.8806 100 80.7596
92.0085 100 81.0934
92.9427 100 77.3149
95.6648 100 73.0798
95.9074 100 71.729
97.4995 100 72.3324
98.3729 100 70.2156
98.1077 100 69.0663
99.9795 100 66.8952
100.322 100 65.885
102.479 100 66.1458
104.45 100 64.7305
106.895 100 62.8018
108.397 100 63.2985
109.433 100 62.7234
110.166 100 64.8964
110.582 100 62.2005
109.233 100 65.6607
110.615 100 66.9474
114.052 100 66.0253
115.062 100 65.7111
114.038 100 62.1073
114.384 100 64.918
115.115 100 62.7043
116.175 100 63.2297
117.741 100 62.67
119.993 100 64.7582
122.048 100 66.0841
124.145 100 65.8793
124.499 100 66.8934
126.333 100 69.0709
126.166 100 70.2794
127.082 100 72.3085
128.508 100 71.6787
128.855 100 73.0864
131.532 100 77.3201
132.485 100 81.0959
133.622 100 80.7621
136.557 100 82.0666
137.594 100 82.0431
138.79 100 81.8257
139.871 100 81.6099
140.925 100 81.1025
142.823 100 81.4008
143.678 100 80.3867
144.669 100 79.6663
145.498 100 80.384
147.326 100 80.6689
148.401 100 80.1541
76.194 100 81.3647
77.2508 100 81.8494
78.2846 100 81.2944
79.3564 100 81.9593
80.0199 100 81.1092
80.4385 100 82.4433
82.6656 100 81.8027
83.7715 100 82.3156
85.0357 100 82.7573
86.1514 100 82.8145
87.2138 100 83.0273
88.2793 100 83.102
89.9019 100 81.5166
89.2229 100 82.6689
90.053 100 83.7583
92.8168 100 80.4194
96.7175 100 73.0646
98.1252 100 71.3513
99.8267 100 69.9287
99.4336 100 68.9177
100.261 100 68.0409
101.165 100 66.5165
103.797 100 65.6884
106.316 100 63.8301
107.462 100 63.8608
109.388 100 63.8234
108.288 100 64.79
107.616 100 67.1871
108.647 100 66.7083
110.563 100 67.9619
114.049 100 68.1249
115.614 100 66.6911
116.689 100 67.0629
115.83 100 64.5566
115.147 100 63.7445
117.179 100 63.7204
118.187 100 63.8991
120.712 100 65.6607
123.325 100 66.5394
124.226 100 68.0647
125.105 100 68.916
124.68 100 69.9351
126.365 100 71.4039
127.793 100 73.124
131.673 100 80.4003
134.439 100 83.753
135.274 100 82.672
134.591 100 81.5149
136.219 100 83.0998
137.286 100 83.0272
138.345 100 82.8162
139.457 100 82.7585
140.722 100 82.3131
141.828 100 81.8015
144.052 100 82.4434
144.472 100 81.1096
145.137 100 81.9588
146.208 100 81.2951
147.242 100 81.8491
148.299 100 81.3644
76.2186 100 82.5479
77.2542 100 82.9523
78.2714 100 82.3735
79.1686 100 82.9803
80.4654 100 83.7706
79.7435 100 84.8861
81.3214 100 82.979
82.5849 100 83.1504
84.3489 100 83.7417
83.7119 100 84.604
85.4141 100 83.7517
86.5998 100 83.9596
87.6406 100 84.0669
89.0082 100 83.8622
91.0971 100 83.4235
92.4811 100 79.2723
97.3054 100 74.2705
98.0253 100 73.3121
99.7936 100 71.1755
100.741 100 70.7457
[...]
POINT_DATA 1600
SCALARS mass double
LOOKUP_TABLE default
1
1
1
1
1
1
1
1
1
1
1
1
1
1
1
1
1
1
1
1
1
1
1
1
1
1
1
1
1
1
1
1
1
1
1
1
1
1
1
1
1
1
1
1
1
1
1
1
1
1
1
1
1
1
1
1
1
1
1
1
1
1
1
1
1
1
1
1
1
1
1
1
1
1
1
1
1
1
1
1
1
1
1
1
1
1
1
1
1
1
1
1
1
1
1
1
1
1
1
1
1
1
1
1
1
1
1
1
1
1
1
1
1
1
1
1
1
1
1
1
1
1
1
1
1
1
1
1
1
1
1
1
1
1
1
1
1
1
1
1
1
1
1
1
1
1
1
1
1
1
1
1
1
1
1
1
1
1
1
1
1
1
1
1
1
1
1
1
1
1
1
1
1
1
1
1
1
1
1
1
1
1
1
1
1
1
1
1
1
1
1
1
1
1
1
1
1
1
1
1
1
1
1
1
1
1
1
1
1
1
1
1
1
1
1
1
1
1
1
1
1
1
1
1
1
1
1
1
1
1
1
1
1
1
1
1
1
1
1
1
1
1
1
1
1
1
1
1
1
1
1
1
1
1
1
1
1
1
1
1
1
1
1
1
1
1
1
1
1
1
1
1
1
1
1
1
1
1
1
1
1
1
1
1
1
1
1
1
1
1
1
1
1
1
1
1
1
1
1
1
1
1
1
1
1
1
1
1
1
1
1
1
1
1
1
1
1
1
1
1
1
1
1
1
1
1
1
1
1
1
1
1
1
1
1
1
1
1
1
1
1
1
1
1
1
1
1
1
1
1
1
1
1
1
1
1
1
1
1
1
1
1
1
1
1
1
1
1
1
1
1
1
1
1
1
1
1
1
1
1
1
1
1
1
1
1
1
1
1
1
1
1
1
1
1
1
1
1
1
1
1
1
1
1
1
1
1
1
1
1
1
1
1
1
1
1
1
1
1
1
1
1
1
1
1
1
1
1
1
1
1
1
1
1
1
1
1
1
1
1
1
1
1
1
1
1
1
1
1
1
1
1
1
1
1
1
1
1
1
1
1
1
1
1
1
1
1
1
1
1
1
1
1
1
1
1
1
1
1
1
1
1
1
1
1
1
1
1
1
1
1
1
1
1
1
1
1
1
1
1
1
1
1
1
1
1
1
1
1
1
1
1
1
1
1
1
1
1
1
1
1
1
1
1
1
1
1
1
1
1
1
1
1
1
1
1
1
1
1
1
1
1
1
1
1
1
1
1
1
1
1
1
1
1
1
1
1
1
1
1
1
1
1
1
1
1
1
1
1
1
1
1
1
1
1
1
1
1
1
1
1
1
1
1
1
1
1
1
1
1
1
1
1
1
1
1
1
1
1
1
1
1
1
1
1
1
1
1
1
1
1
1
1
1
1
1
1
1
1
1
1
1
1
1
1
1
1
1
1
1
1
1
1
1
1
1
1
1
1
1
1
1
1
1
1
1
1
1
1
1
1
1
1
1
1
1
1
1
1
1
1
1
1
1
1
1
1
1
1
1
1
1
1
1
1
1
1
1
1
1
1
1
1
1
1
1
1
1
1
1
1
1
1
1
1
1
1
1
1
1
1
1
1
1
1
1
1
1
1
1
1
1
1
1
1
1
1
1
1
1
1
1
1
1
1
1
1
1
1
1
1
1
1
1
1
1
1
1
1
1
1
1
1
1
1
1
1
1
1
1
1
1
1
1
1
1
1
1
1
1
1
1
1
1
1
1
1
1
1
1
1
1
1
1
1
1
1
1
1
1
1
1
1
1
1
1
1
1
1
1
1
1
1
1
1
1
1
1
1
1
1
1
1
1
1
1
1
1
1
1
1
1
1
1
1
1
1
1
1
1
1
1
1
1
1
1
1
1
1
1
1
1
1
1
1
1
1
1
1
1
1
1
1
1
1
1
1
1
1
1
1
1
1
1
1
1
1
1
1
1
1
1
1
1
1
1
1
1
1
1
1
1
1
1
1
1
1
1
1
1
1
1
1
1
1
1
1
1
1
1
1
1
1
1
1
1
1
1
1
1
1
1
1
1
1
1
1
1
1
1
1
1
1
1
1
1
1
1
1
1
1
1
1
1
1
1
1
1
1
1
1
1
1
1
1
1
1
1
1
1
1
1
1
1
1
1
1
1
1
1
1
1
1
1
1
1
1
1
1
1
1
1
1
1
1
1
1
1
1
1
1
1
1
1
1
1
1
1
1
1
1
1
1
1
1
1
1
1
1
1
1
1
1
1
1
1
1
1
1
1
1
1
1
1
1
1
1
1
1
1
1
1
1
1
1
1
1
1
1
1
1
1
1
1
1
1
1
1
1
1
1
1
1
1
1
1
1
1
1
1
1
1
1
1
1
1
1
1
1
1
1
1
1
1
1
1
1
1
1
1
1
1
1
1
1
1
1
1
1
1
1
1
1
1
1
1
1
1
1
1
1
1
1
1
1
1
1
1
1
1
1
1
1
1
1
1
1
1
1
1
1
1
1
1
1
1
1
1
1
1
1
1
1
1
1
1
1
1
1
1
1
1
1
1
1
1
1
1
1
1
1
1
1
1
1
1
1
1
1
1
1
1
1
1
1
1
1
1
1
1
1
1
1
1
1
1
1
1
1
1
1
1
1
1
1
1
1
1
1
1
1
1
1
1
1
1
1
1
1
1
1
1
1
1
1
1
1
1
1
1
1
1
1
1
1
1
1
1
1
1
1
1
1
1
1
1
1
1
1
1
1
1
1
1
1
1
1
1
1
1
1
1
1
1
1
1
1
1
1
1
1
1
1
1
1
1
1
1
1
1
1
1
1
1
1
1
1
1
1
1
1
1
1
1
1
1
1
1
1
1
1
1
1
1
1
1
1
1
1
1
1
1
1
1
1
1
1
1
1
1
1
1
1
1
1
1
1
1
1
1
1
1
1
1
1
1
1
1
1
1
1
1
1
1
1
1
1
1
1
1
1
1
1
1
1
1
1
1
1
1
1
1
1
1
1
1
1
1
1
1
1
1
1
1
1
1
1
1
1
1
1
1
1
1
1
1
1
1
1
1
1
1
1
1
1
1
1
1
1
1
1
1
1
1
1
1
1
1
1
1
1
1
1
1
1
1
1
1
1
1
1
1
1
1
1
1
1
1
1
1
1
1
1
1
1
1
1
1
1
1
1
1
1
1
1
1
1
1
1
1
1
1
1
1
1
1
1
1
1
1
1
1
1
1
1
1
1
1
1
1
1
1
1
1
1
1
1
1
1
1
1
1
1
1
1
1
1
1
1
1
1
1
1
1
1
1
1
1
1
1
1
1
1
1
1
1
1
1
1
1
1
1
1
1
1
1
1
1
1
1
1
1
1
1
1
1
1
1
1
1
1
1
1
1
1
1
1
1
1
1
1
1
1
1
1
1
1
1
1
1
1
1
1
1
1
1
1
1
1
1
1
1
1
1
1
1
1
1
1
1
1
1
1
1
1
1
1
1
1
1
1
1
1
1
1
1
1
1
1
1
1
1
1
1
1
1
1
1
1
1
1
1
1
1
1
1
1
1
1
1
1
1
1
1
1
1
1
1
1
1
1
1
1
1
1
1
1
1
1
1
1
1
1
1
1
1
1
1
1
1
VECTORS force double
2.50475 0 12.8431
-28.483 0 -25.7187
-16.5493 0 -15.2762
-13.8939 0 5.70555
23.4295 0 19.9391
-1.16368 0 -5.21767
-80.0255 0 -77.1528
17.6671 0 7.15482
18.4561 0 -6.51261
10.8579 0 -1.66559
-0.912372 0 -13.8017
-8.10654 0 21.7683
11.1259 0 -10.9569
18.5152 0 -0.261535
-6.33241 0 2.80115
13.5826 0 11.0662
-12.7058 0 -20.2053
10.2458 0 10.1774
0 0 0
60.7009 0 -19.9753
9.84772 0 10.514
13.4175 0 30.9675
4.10825 0 -13.7188
-16.1149 0 -4.68057
-8.42595 0 13.3399
9.51042 0 6.38248
-41.5883 0 8.4026
-2.51283 0 -38.6347
15.1257 0 -8.60552
37.7063 0 62.9564
-39.9167 0 64.7645
-15.3418 0 -8.62859
1.69382 0 -39.601
45.1687 0 7.37089
-9.51241 0 6.40295
8.40457 0 13.3125
16.1193 0 -4.70094
-4.14255 0 -13.7943
-13.3662 0 31.0571
-9.85779 0 10.532
-62.0279 0 -22.1759
0 0 0
-10.9619 0 9.56662
1.75028 0 -19.0903
-14.8201 0 10.9896
9.39078 0 1.51526
-19.0081 0 -0.896574
-10.8564 0 -10.3536
7.98772 0 22.6582
0.882965 0 -13.7297
-10.8902 0 -1.73938
-18.2752 0 -6.50835
-17.9498 0 7.28918
80.1885 0 -77.655
1.17245 0 -5.19708
-23.4147 0 19.9523
13.9026 0 5.68785
16.5319 0 -15.2377
28.5104 0 -25.745
-2.50631 0 12.8451
16.5115 0 4.83892
-20.9933 0 1.86609
44.866 0 14.6799
-25.62 0 -49.9913
-37.2694 0 12.4843
30.3782 0 -2.47987
-0.729784 0 76.8306
-29.2427 0 -21.4369
8.99662e-05 0 50.8148
26.0863 0 20.681
-12.2228 0 17.3311
-18.5663 0 31.5053
21.6679 0 69.7453
34.2675 0 -11.5512
11.0666 0 4.85182
-36.205 0 -45.4212
7.66845 0 22.1213
-47.3069 0 53.2323
49.9666 0 -34.8667
27.0518 0 21.704
-1.32647 0 -44.3155
0 0 0
6.80277 0 14.3821
-4.54693 0 4.12961
2.4759 0 8.32048
-3.70619 0 -13.0217
1.05531 0 -9.92254
3.35524 0 19.6498
8.61692 0 -1.76545
-11.8093 0 -23.0841
11.8715 0 -24.9591
-8.77388 0 -2.02579
-3.85802 0 19.7128
2.22236 0 -8.26476
3.70799 0 -13.0331
-2.45613 0 8.3389
0.403145 0 1.33182
-8.32334 0 14.1319
0 0 0
1.31541 0 -44.3233
-17.9476 0 15.9773
-58.4873 0 -32.5713
46.7446 0 55.6966
-7.89188 0 20.643
29.4508 0 -44.7285
-11.461 0 4.99507
-31.1513 0 -8.88135
-21.6695 0 68.4435
18.9853 0 32.8099
12.6027 0 16.5292
-25.805 0 20.6277
-0.492331 0 50.8429
29.2339 0 -21.2047
0.700437 0 77.4425
-30.2366 0 -2.44899
37.4 0 12.3671
25.619 0 -49.936
-44.8859 0 14.6568
20.9933 0 1.8808
-16.5152 0 4.82247
18.6573 0 -3.05446
-30.5022 0 -0.471373
37.7551 0 -4.63286
-2.67161 0 8.14999
9.33601 0 61.4354
0.712802 0 13.5988
17.1849 0 1.84561
-4.84556 0 16.5873
8.50771 0 18.0582
-30.886 0 -32.0821
30.6359 0 -1.08366
4.15294 0 11.3259
12.5075 0 9.19232
2.63787 0 -26.5083
15.2262 0 9.4938
8.53169 0 4.80534
11.5087 0 16.1949
12.9652 0 -16.2353
-60.3574 0 28.6312
-26.7633 0 -19.5008
-9.29254 0 16.8534
11.0317 0 -5.89
24.9155 0 3.57366
-4.27896 0 -1.00725
2.85574 0 6.54257
2.79342 0 -0.608413
-5.0759 0 18.7315
16.8556 0 4.87066
25.2188 0 -12.8528
-2.17167 0 24.2123
2.37024 0 26.0554
-25.2427 0 -10.6894
-16.1549 0 1.33635
3.32272 0 19.4363
-0.465208 0 4.89168
-3.38802 0 9.01669
18.5798 0 -17.2162
-37.9456 0 4.1791
-11.8511 0 -5.79467
7.95083 0 15.7675
18.9653 0 -12.2831
70.0603 0 24.1715
-11.9519 0 -14.7776
4.76465 0 15.4443
-6.81141 0 5.44142
-15.1949 0 9.08657
-2.3943 0 -28.2964
-12.4095 0 9.80168
-4.41911 0 12.0729
-30.7413 0 -1.22742
30.1538 0 -31.8053
-8.28172 0 17.5
4.85379 0 16.6329
-17.2711 0 1.87696
-1.03369 0 13.6358
-9.34777 0 61.4077
2.68515 0 8.13723
-37.7766 0 -4.66392
30.5192 0 -0.457822
-18.6511 0 -3.05468
-3.20524 0 18.6767
6.55763 0 -22.8554
23.1947 0 39.8366
-5.68174 0 -60.3925
-14.8361 0 -28.3535
9.1012 0 19.6795
-16.8537 0 -7.09904
25.4496 0 7.4725
46.1918 0 -51.3529
3.54476 0 3.37943
17.8041 0 -33.0416
-39.596 0 -16.1737
-46.4001 0 -168.591
-1.94031 0 -41.3517
11.5544 0 8.71928
-13.3637 0 -2.43586
1.11025 0 6.56067
-0.267776 0 -15.3532
-13.4993 0 -15.5042
-8.88972 0 5.94828
-10.1493 0 -5.70861
-3.91336 0 16.1829
-11.2835 0 -0.993883
-25.3889 0 52.3057
22.5435 0 -58.3027
-42.844 0 6.64964
5.62821 0 12.9535
-3.67191 0 -6.99148
-21.4148 0 4.30627
-4.53632 0 -14.2778
5.36464 0 -14.4192
19.0292 0 -2.34386
1.35174 0 -10.0655
-3.43209 0 4.75795
64.7715 0 20.7601
-13.4616 0 -43.9185
11.202 0 5.87128
24.7549 0 2.74239
3.46933 0 14.3607
18.4795 0 -16.5376
10.7622 0 6.89284
5.82889 0 -10.2519
0.792251 0 -17.0056
-9.53921 0 7.74946
16.2629 0 -4.25215
-11.5763 0 8.61093
0.576272 0 -43.8157
45.2285 0 -171.599
40.98 0 -14.5806
-18.6669 0 -33.3958
-3.38529 0 2.54354
-45.7801 0 -50.5107
-25.3754 0 7.33917
16.7599 0 -7.05801
-9.05337 0 19.6552
14.816 0 -28.3913
5.66545 0 -60.3727
-23.1818 0 39.82
-6.60703 0 -22.8623
3.20133 0 18.7024
20.6118 0 7.29434
-6.36088 0 16.9833
11.6694 0 -24.0654
11.0199 0 -6.04353
-3.50866 0 0.685389
-22.3629 0 -43.072
20.8283 0 -20.9712
-116.918 0 55.0863
43.2218 0 3.51298
-17.5976 0 -26.8682
2.29314 0 5.72594
84.3461 0 164.645
-18.9115 0 -25.7091
12.5742 0 32.2037
-35.5984 0 -29.5733
77.1221 0 -9.22921
12.5947 0 -25.7717
18.7635 0 23.1689
7.45209 0 -106.458
-12.8355 0 -16.9046
-5.2602 0 -7.94223
11.9065 0 7.40853
42.2345 0 -18.9336
1.76286 0 0.529202
40.3097 0 -10.4042
-5.67206 0 -17.5382
-17.5244 0 27.2342
-19.6315 0 -58.6592
-17.2657 0 3.79558
11.3658 0 -4.16849
-11.2384 0 -4.26644
18.0998 0 6.21957
12.4094 0 -32.1979
10.9174 0 34.992
-11.6888 0 3.33672
-78.0069 0 -12.7364
15.095 0 -5.0076
-10.7909 0 -22.2167
-9.49358 0 8.95225
6.52611 0 -6.88742
-1.01586 0 0.199021
1.94096 0 -90.1751
-14.1621 0 18.4198
-5.24656 0 -22.9418
-50.2537 0 -13.1987
56.6293 0 -43.857
-34.0777 0 42.4477
18.7545 0 -24.4226
-86.8838 0 167.381
-1.20451 0 7.25649
16.448 0 -31.5778
-42.5152 0 3.26968
116.359 0 55.0957
-20.9588 0 -20.7626
22.4212 0 -43.1417
3.49481 0 0.733489
-10.9667 0 -6.03547
-11.6476 0 -24.1116
6.30304 0 16.9563
-20.556 0 7.29278
8.46692 0 -0.808064
11.8119 0 -17.785
-15.3934 0 -10.8905
-8.65944 0 76.1784
25.1988 0 -14.0696
3.10163 0 5.76548
-8.28891 0 22.312
-54.6915 0 -7.25758
38.0618 0 -25.4582
-22.3934 0 3.99278
-21.6622 0 -37.046
-9.91829 0 -20.995
-15.9929 0 -27.8546
5.89486 0 15.141
-6.81609 0 3.16477
-47.4414 0 13.1214
-4.15712 0 -0.270517
-15.6911 0 2.86118
-18.822 0 100.318
27.6148 0 23.9537
8.30914 0 16.9335
-8.27307 0 8.99625
-58.9226 0 -60.2714
2.5535 0 13.6177
0.683841 0 12.8548
0.822163 0 1.89432
-16.6146 0 3.58318
26.3126 0 2.75007
-8.69866 0 3.51006
-42.6789 0 1.88934
42.9573 0 0.298308
2.93022 0 -0.606479
-8.32151 0 9.0047
-8.10619 0 -0.109089
-16.4052 0 4.70196
-6.99293 0 46.8314
-0.0229219 0 11.6789
26.3606 0 -18.5481
7.29305 0 14.9377
-12.1622 0 17.0363
-16.8578 0 22.0282
17.17 0 85.0911
-2.21263 0 -6.75763
-11.7551 0 13.7264
32.4937 0 12.8142
5.05764 0 3.50358
-3.75877 0 15.1824
22.4758 0 -27.9178
9.32828 0 -23.1537
16.4869 0 -20.6953
26.0613 0 4.45861
-36.1111 0 -27.051
53.564 0 -6.88454
8.49313 0 22.1194
-3.10896 0 5.74401
-24.945 0 -13.9234
8.62758 0 76.1908
15.4835 0 -10.8263
-11.6572 0 -17.5053
-8.4061 0 -0.769035
16.25 0 12.707
-13.3966 0 26.6224
-5.57205 0 21.1865
9.83866 0 5.24128
17.5887 0 -30.2468
-30.693 0 -12.9831
15.849 0 9.24678
-1.42197 0 -14.3819
26.3082 0 31.7161
-70.1334 0 -75.0285
91.969 0 79.6187
-1.77649 0 -1.56044
-27.9719 0 66.2637
-38.1549 0 -146.486
-36.7056 0 -10.1307
2.66965 0 -6.72904
24.6214 0 -35.4177
-6.75884 0 -5.0394
6.21244 0 1.80525
-8.73431 0 30.901
-23.3442 0 -63.1966
-4.9585 0 -6.03484
63.4112 0 75.1401
0.396899 0 0.759486
13.7201 0 -12.2723
1.37684 0 -16.9545
-16.6961 0 -1.08781
0.181737 0 48.2374
-4.30842 0 -3.11206
3.3199 0 -87.9332
-27.2355 0 6.01204
70.2393 0 20.905
17.575 0 23.1373
-22.9968 0 -39.0764
3.24053 0 -69.8905
-14.8251 0 -5.33713
3.58916 0 -0.273289
-30.5166 0 37.1228
5.75293 0 -8.22445
27.73 0 -58.7296
4.17742 0 20.6964
-3.36727 0 14.1615
10.334 0 -9.31108
-15.8409 0 -23.8028
-2.85566 0 -14.6329
28.0355 0 -9.55506
37.7829 0 -158.736
17.228 0 58.91
-1.1815 0 -2.68859
-81.5669 0 67.8368
64.991 0 -77.9485
-26.2588 0 32.1363
0.60283 0 -14.4912
-16.0414 0 9.37578
31.5704 0 -13.2962
-17.5136 0 -30.1981
-10.3473 0 4.96573
5.77704 0 21.3429
13.2337 0 26.2434
-16.2606 0 12.7058
17.3774 0 -3.73785
-3.54191 0 -13.9242
-2.79284 0 -20.3105
-11.1661 0 -40.4244
-12.3346 0 -5.07178
-70.4061 0 -32.6719
34.2561 0 17.5044
-9.6915 0 -1.81808
-26.6049 0 -37.7395
-24.7383 0 44.3426
14.4309 0 48.6705
-52.2069 0 16.1819
-5.28162 0 14.9128
50.4905 0 -17.3085
14.1953 0 -6.21514
45.8558 0 -38.1839
35.4583 0 21.6553
-2.57652 0 4.41328
10.5058 0 33.5502
-12.2153 0 -30.6458
-7.45452 0 -2.57819
35.4067 0 29.2258
-6.75665 0 -70.9092
1.04587 0 2.96949
3.01628 0 -44.9498
-0.485175 0 20.244
4.59815 0 -10.5717
-30.9295 0 -18.4119
-1.38909 0 2.58547
-10.2876 0 100.768
-23.3674 0 -45.4588
2.70222 0 9.70117
10.8151 0 -20.3148
16.7857 0 21.9571
-17.1464 0 31.1528
-67.1753 0 -10.2293
81.2145 0 4.98583
8.42547 0 -63.2757
-36.6464 0 24.3987
8.2608 0 -3.7431
9.11986 0 -22.4984
-7.65049 0 23.6014
3.13526 0 5.56488
-33.561 0 18.7077
-36.0396 0 -29.0545
-17.3032 0 -9.28305
-52.1188 0 -18.1144
5.15295 0 14.7272
54.3056 0 16.8171
-20.0495 0 51.3333
24.4268 0 42.1966
29.4371 0 -41.0194
10.32 0 -1.83673
-35.0532 0 17.8973
70.2576 0 -32.7235
12.1496 0 -5.19769
11.6158 0 -37.9191
2.71883 0 -20.4102
3.48613 0 -13.8403
-17.3891 0 -3.75007
7.55534 0 -29.0794
12.4435 0 5.36755
-19.7625 0 -2.05076
74.1536 0 32.397
0.709615 0 -2.78406
25.7282 0 37.9683
62.7617 0 46.09
-9.35984 0 -7.62781
-6.57659 0 -23.7765
0.599119 0 25.4618
55.1015 0 28.3919
-55.4992 0 -96.0677
66.2353 0 3.06388
-21.5046 0 41.6395
4.64169 0 9.35133
9.85488 0 4.74665
-1.51052 0 -23.8248
-3.88415 0 9.19282
-52.5353 0 12.7164
57.2223 0 -33.6112
-6.32832 0 -6.7887
12.5795 0 55.4585
-15.7949 0 -12.075
-7.01779 0 -6.04916
27.5004 0 3.10239
-21.5226 0 39.8764
11.6345 0 7.52014
24.2406 0 6.86327
14.8775 0 14.6708
-4.61043 0 20.7045
27.6382 0 -3.03495
-29.5908 0 18.3829
0.708098 0 -6.89975
-10.2848 0 18.0421
4.04307 0 -6.80611
-83.4018 0 -18.5914
2.13538 0 -10.2901
7.24881 0 -16.0908
-8.28139 0 51.6695
7.42959 0 -7.83073
-8.81255 0 -4.4072
12.8714 0 -2.52811
6.30967 0 0.042937
23.6247 0 -39.6479
-30.0786 0 5.94445
-3.61254 0 9.26357
26.113 0 41.8804
-59.1762 0 7.22277
43.3257 0 -97.0077
-57.7841 0 26.5221
-0.10611 0 26.3652
8.64045 0 -23.8973
9.44646 0 -7.63003
-62.3949 0 46.0825
-26.0804 0 38.3922
-0.740704 0 -2.85849
-74.3242 0 29.3898
19.2104 0 -1.80665
-12.3097 0 5.4601
-7.87737 0 -28.5727
10.2542 0 9.82204
-36.5548 0 22.6353
-94.7736 0 -41.4625
-7.94991 0 -20.2907
39.3657 0 21.1822
-5.6174 0 -8.94158
-90.3643 0 49.3092
98.4475 0 -30.3842
-11.2633 0 18.4396
-3.31045 0 -6.74576
-15.6563 0 -58.6145
-88.8406 0 -8.89245
64.0911 0 62.8651
7.96772 0 -74.5962
7.34642 0 -7.62948
-0.12664 0 2.96052
-20.5616 0 -0.832268
12.9672 0 164.334
-13.9314 0 2.96863
1.76154 0 1.79551
-125.01 0 -59.4467
-9.42225 0 -5.0705
-3.8745 0 -5.06488
-13.9596 0 17.9832
203.324 0 -97.9324
8.8043 0 3.58341
-41.4558 0 -57.2707
12.4374 0 2.70134
-11.5533 0 5.04485
-1.79582 0 -25.2382
18.8385 0 60.4414
72.3532 0 -63.576
-13.1683 0 12.5823
4.842 0 0.800038
-20.402 0 -1.95153
-44.071 0 -49.4619
88.7935 0 45.3094
-9.52264 0 -23.4143
27.9264 0 -24.2281
88.5186 0 -42.664
-5.11071 0 5.2015
8.62008 0 3.27159
-11.2765 0 175.659
9.16236 0 9.76601
2.54531 0 3.67833
-7.04768 0 -9.20296
-8.89757 0 -73.1149
-60.7695 0 55.5223
85.6565 0 10.3983
19.885 0 -67.6734
2.33818 0 -5.25756
12.6406 0 18.2323
-95.4323 0 -28.8331
86.531 0 47.359
5.19221 0 -8.11243
-38.7261 0 20.8273
8.78405 0 -21.0858
95.8409 0 -41.0241
35.8926 0 22.1393
-10.1303 0 9.44156
-12.8112 0 40.0003
11.5253 0 0.101957
-47.0886 0 -18.5993
9.48711 0 11.9655
13.2361 0 8.20387
20.3591 0 11.1752
-18.7152 0 -15.3815
-28.9919 0 0.84779
23.1781 0 -8.51597
42.9581 0 -42.2744
-12.692 0 45.1091
28.7814 0 34.7329
2.88636 0 69.7331
-20.3485 0 -10.976
6.3632 0 6.69241
-15.7554 0 -10.0578
-3.44405 0 -11.2223
12.2541 0 30.8286
7.44033 0 5.59117
22.7659 0 -3.96516
-22.6643 0 12.8067
145.284 0 45.5651
-2.1376 0 19.7619
-4.3016 0 12.4186
-219.551 0 80.7028
3.77459 0 -0.104158
-12.09 0 25.49
-24.5608 0 -37.9127
21.1973 0 -10.1754
-18.8947 0 -4.3245
16.4592 0 -0.911384
-15.2574 0 34.6205
13.609 0 -41.2265
-2.17024 0 -9.81751
-6.0903 0 5.72393
55.2938 0 33.2228
4.70525 0 30.4134
0.710836 0 19.2722
-72.6671 0 6.81479
24.5751 0 22.5277
-45.7849 0 12.3426
11.8685 0 2.32028
7.67545 0 31.9971
1.63785 0 -13.055
7.14811 0 -2.43037
-8.91774 0 4.21312
28.8992 0 -9.20895
-0.660488 0 68.4135
-28.0694 0 21.4859
12.1848 0 55.22
-52.3751 0 -50.3885
-23.2005 0 -8.58867
45.8525 0 5.08755
18.0827 0 -15.1086
-21.252 0 11.8534
-13.4627 0 8.3114
-9.27569 0 11.8349
47.3557 0 -18.5527
-11.5133 0 0.0686847
12.9792 0 40.3888
22.4852 0 -28.156
17.3357 0 10.3948
-25.5815 0 -10.7924
21.8711 0 -40.9932
15.021 0 19.5704
13.7788 0 -20.1127
-8.9538 0 -8.47025
-3.9074 0 26.2682
-52.6407 0 63.3173
34.6626 0 -6.73942
-4.1827 0 -0.39213
-3.2621 0 7.64978
2.19116 0 -6.39192
-49.8387 0 -19.8422
5.57846 0 -0.635555
-27.0941 0 -14.4168
13.6278 0 11.115
8.85709 0 -8.99601
16.372 0 -6.57229
-21.5817 0 35.9891
-10.146 0 -13.1634
21.1531 0 -23.153
3.91453 0 -15.6635
-10.3185 0 10.4632
-9.84576 0 10.2502
8.03291 0 9.88195
-5.27262 0 7.0518
29.5588 0 -25.9632
47.0659 0 55.7297
-14.8484 0 -1.44545
11.9403 0 2.2018
10.0951 0 34.6074
8.65355 0 -20.074
7.9436 0 3.58753
-30.6955 0 18.5173
-11.6096 0 5.37438
10.8143 0 6.52861
-9.36595 0 3.92622
-22.6302 0 -54.5488
-4.49513 0 -0.56049
16.3885 0 48.1704
-14.4853 0 -13.3664
-10.022 0 -6.26203
-6.47904 0 7.30328
29.1969 0 -12.7826
-12.3297 0 5.13138
36.8729 0 -17.0376
-4.89203 0 -7.34849
5.47029 0 11.5345
5.28465 0 -1.23354
-50.2543 0 -11.5858
53.4962 0 59.6934
5.65836 0 26.8893
7.52456 0 -9.01124
-13.7021 0 -19.9927
-15.379 0 19.7331
-21.9164 0 -41.1023
26.9459 0 -11.8801
-17.2079 0 10.51
-22.7309 0 -28.6171
9.81605 0 -14.3718
-31.98 0 18.6144
6.11175 0 14.4297
-5.26404 0 8.88561
11.8554 0 32.8872
6.94593 0 17.541
27.0725 0 -13.1146
9.33708 0 -14.7449
-12.5914 0 -23.5585
47.3429 0 -43.865
-36.7885 0 46.0845
-38.626 0 8.01334
34.2205 0 -9.41592
5.93869 0 -9.69505
30.7072 0 46.7422
-21.3295 0 -11.7428
19.2479 0 -0.373012
7.63667 0 11.1384
13.2336 0 -0.835151
-4.7874 0 5.89853
0.479078 0 1.02426
-65.0889 0 -1.78196
-40.5342 0 12.3918
1.82955 0 18.6053
7.13047 0 -11.1995
61.2099 0 -11.4683
-10.0962 0 6.49658
-29.6467 0 -2.10882
-7.70313 0 20.3786
-2.21489 0 -2.59536
-49.9559 0 51.2238
4.52916 0 -18.1482
-2.1858 0 -8.88868
5.20548 0 7.30001
-51.726 0 12.3745
-6.11009 0 -17.0595
28.357 0 24.3918
31.4386 0 31.7543
53.4184 0 -22.4564
-5.43921 0 2.34586
4.51187 0 12.3586
-9.23558 0 0.0732912
-9.541 0 3.17092
-39.9929 0 11.0521
22.1185 0 -11.385
-23.214 0 37.6858
-2.47597 0 -11.289
-21.1718 0 -0.680945
29.3696 0 11.5278
45.1076 0 55.176
-46.9624 0 -43.8436
14.2744 0 -27.2905
-10.3909 0 -12.1949
-31.7865 0 -15.4763
-6.49805 0 17.3773
-9.27763 0 33.8022
5.66485 0 8.75318
-5.77881 0 14.2336
31.9134 0 18.7084
-9.92379 0 -13.9829
10.0678 0 14.0366
17.1618 0 10.2178
-37.9676 0 -73.8047
-45.5545 0 -57.7195
2.00892 0 0.749934
-24.7565 0 10.4039
-9.7426 0 -54.9589
6.58261 0 6.2492
-4.77863 0 4.71585
-34.4473 0 5.19416
13.7628 0 -4.36007
27.749 0 -119.173
-19.4846 0 7.24505
-2.43887 0 -15.8192
5.92875 0 -12.9812
19.8084 0 8.55011
-3.59481 0 -9.50667
8.66401 0 6.40846
6.73866 0 17.3529
-73.4468 0 6.53632
18.0285 0 -5.99325
9.09967 0 6.55533
11.2733 0 -2.2485
-65.5411 0 -40.1787
-2.8301 0 2.68505
-34.2207 0 5.18413
-19.9113 0 1.93307
0.535511 0 -4.76458
26.6517 0 -57.9999
-9.24698 0 0.174088
-3.47393 0 5.5712
3.73563 0 -1.06051
-28.2955 0 26.7871
16.9347 0 -1.47354
30.3111 0 -10.3799
-11.6428 0 -3.43496
79.9328 0 -54.7346
-10.3907 0 4.38337
-6.53812 0 12.8224
-28.7543 0 -21.3404
55.8689 0 -2.83995
0.766426 0 16.1702
-10.5497 0 5.02224
5.31132 0 -14.4125
42.1677 0 1.88641
-3.46836 0 -15.3299
0.325148 0 -13.4778
16.7272 0 -5.17265
-24.7789 0 -126.819
-13.3275 0 -4.3415
30.4596 0 4.55111
3.77324 0 4.31491
-8.31006 0 7.85695
-7.40031 0 -52.7241
24.6117 0 13.3947
-3.50507 0 1.79538
42.8982 0 -54.2361
40.2885 0 -75.7266
-17.3654 0 9.81388
-9.77689 0 13.8302
22.3662 0 -68.065
-14.1925 0 -14.7939
-4.56001 0 39.7037
34.7762 0 21.457
53.8319 0 21.3482
15.346 0 -3.1368
-53.5686 0 29.2856
-145.342 0 -163.399
31.3776 0 23.8962
55.6209 0 11.9585
1.7837 0 -3.77467
18.2548 0 124.086
-25.3035 0 4.29058
26.201 0 5.0948
-10.8172 0 -27.7665
-17.3474 0 9.36405
14.833 0 -11.2126
-4.40112 0 49.3583
-57.094 0 -0.207177
9.88229 0 -2.84546
-0.790588 0 11.3482
-12.9768 0 2.96386
8.83855 0 -2.89425
61.1893 0 -1.90711
-36.9614 0 -38.5128
20.1947 0 6.30682
0.814404 0 -10.8475
-42.7279 0 20.0169
-8.5196 0 18.6483
17.2178 0 -17.3438
8.72158 0 8.82298
-4.7749 0 -6.38829
-9.90339 0 7.42745
23.4974 0 -30.2415
-26.0417 0 -0.695206
49.6888 0 -61.3182
-27.514 0 -10.0975
-1.25403 0 -10.4316
2.14948 0 -0.48842
4.09765 0 -4.11892
-10.9465 0 -10.0226
34.7022 0 6.02402
-12.9812 0 22.4411
-17.4661 0 -9.55051
4.26529 0 9.23631
-10.7245 0 -21.0492
-3.04812 0 14.0677
21.6507 0 16.1629
-14.0477 0 133.546