# vtk DataFile Version 3.0
SiWiRVisFile
ASCII
DATASET UNSTRUCTURED_GRID
POINTS 1600 DOUBLE
76.3312 100 72.1018
74.7024 100 72.3021
75.5884 100 73.0074
77.4945 100 72.5674
78.5973 100 72.8437
79.4031 100 73.7436
80.6637 100 73.0527
81.4186 100 73.8252
82.5067 100 74.0824
82.3981 100 72.843
92.6743 100 64.9581
91.6311 100 64.805
92.4811 100 66.2277
90.6169 100 65.1455
82.794 100 65.4084
89.8238 100 57.1066
91.3492 100 56.7352
90.3676 100 54.4152
85.9053 100 47.1709
93.7523 100 51.6653
107.987 100 28.3642
108.073 100 26.467
107.054 100 26.2009
107.589 100 25.2931
106.228 100 27.1245
111.46 100 28.3753
110.718 100 18.9943
113.534 100 18.8317
110.353 100 21.9898
111.115 100 21.1062
112.226 100 20.841
113.476 100 21.3819
111.458 100 20
114.213 100 20.3531
114.74 100 25.5616
118.413 100 27.6746
116.565 100 24.7011
116.303 100 26.7459
115.71 100 27.6967
116.049 100 28.7915
133.15 100 52.8141
138.587 100 47.1709
131.214 100 54.7733
133.428 100 55.9522
135.387 100 54.8653
135.226 100 67.6593
133.913 100 64.4899
134.322 100 67.1167
132.758 100 64.5361
133.275 100 65.5867
141.537 100 72.6899
140.689 100 74.1219
142.038 100 73.8372
143.154 100 73.4246
145.057 100 73.7594
146.075 100 73.289
147.125 100 72.7391
149.155 100 72.833
150.532 100 71.6376
148.05 100 72.1525
73.5617 100 72.7832
74.5021 100 73.3289
76.5604 100 73.3632
77.6583 100 73.8067
78.5896 100 74.5032
80.516 100 74.313
81.6927 100 74.9362
82.8087 100 75.3032
83.5669 100 74.482
85.3153 100 75.3106
86.6733 100 75.3584
92.132 100 63.869
91.2991 100 65.9442
91.1971 100 62.1713
90.7777 100 57.5979
91.2621 100 63.3144
91.9624 100 55.4913
91.4361 100 54.2347
92.5948 100 54.5041
96.3324 100 51.9005
107.431 100 27.4734
95.7694 100 35.3071
106.858 100 40.0921
108.799 100 24.9025
109.104 100 26.2295
111.638 100 27.1214
111.295 100 26.0171
110.147 100 26.0266
106.295 100 15.4121
111.467 100 22.2619
112.575 100 21.9765
118.637 100 15.4925
113.44 100 23.5838
115.519 100 24.142
115.231 100 26.618
115.936 100 25.6115
114.763 100 23.2936
119.247 100 40.1407
128.729 100 35.2995
116.965 100 27.9809
127.419 100 52.4046
129.338 100 53.0229
132.261 100 52.0519
134.663 100 55.7625
133.409 100 63.5011
134.072 100 56.9532
131.957 100 60.7271
134.293 100 65.979
131.649 100 64.0184
138.622 100 75.3044
139.709 100 74.987
140.781 100 75.3085
141.82 100 74.8566
143.015 100 74.5312
143.997 100 74.1305
146.013 100 74.4125
147.156 100 73.848
148.075 100 73.3028
150.124 100 73.6019
151.123 100 72.8881
73.5877 100 74.0749
74.5329 100 74.5096
75.5345 100 74.0398
76.5677 100 74.5462
77.5212 100 75.0546
79.6661 100 74.9742
80.5914 100 75.5227
81.8186 100 75.9498
82.857 100 76.3772
83.7937 100 75.8495
85.8638 100 76.2892
85.0982 100 77.4805
87.7341 100 77.133
92.2483 100 62.7282
89.8639 100 61.1141
92.9993 100 59.8073
92.567 100 56.6042
93.1238 100 55.6333
93.793 100 54.2182
95.2323 100 52.228
96.9413 100 50.9647
104.596 100 40.3739
105.704 100 39.9077
106.724 100 41.3188
96.9032 100 37.4976
107.837 100 40.4032
107.451 100 38.7559
106.138 100 38.838
110.89 100 23.2815
112.469 100 24.4726
112.494 100 23.1025
113.585 100 22.5265
122.081 100 39.6492
117.548 100 37.4429
118.019 100 39.5641
121.199 100 40.2865
118.357 100 40.8245
119.467 100 41.211
120.817 100 41.259
126.677 100 51.4228
131.695 100 53.783
130.468 100 53.9493
133.626 100 54.87
132.293 100 55.1315
132.787 100 58.304
132.261 100 59.3447
132.284 100 63.0792
137.042 100 76.2563
138.122 100 76.5793
139.502 100 76.2124
140.68 100 76.4913
141.685 100 76.102
142.827 100 75.6755
143.891 100 75.3183
144.893 100 74.8648
147.003 100 74.9971
148.01 100 74.6049
148.999 100 74.0174
150.076 100 74.6813
151.061 100 74.1365
73.7507 100 75.2108
74.6997 100 75.7145
75.6124 100 75.1216
76.5712 100 75.6606
78.5324 100 75.6538
79.6148 100 76.0948
80.8447 100 76.5169
81.8418 100 77.0034
83.8182 100 76.9639
84.8223 100 76.3241
85.0689 100 78.6901
86.6786 100 77.2003
87.2688 100 76.2202
92.1651 100 61.5441
91.2214 100 60.9702
90.4885 100 60.2607
93.2089 100 57.615
92.0996 100 57.6218
93.9023 100 56.5726
94.3705 100 55.632
94.4525 100 53.1976
97.4164 100 52.2727
104.73 100 39.1446
104.876 100 44.3058
105.635 100 40.9075
105.842 100 42.0695
108.394 100 42.8887
110.205 100 42.503
108.272 100 39.469
112.226 100 25.5466
114.348 100 24.3308
114.214 100 36.8592
115.191 100 41.7932
116.617 100 41.1585
117.674 100 41.6554
120.051 100 42.1493
118.93 100 42.1422
119.568 100 38.9235
126.334 100 52.6352
129.266 100 54.1883
130.261 100 55.0476
132.02 100 56.2822
131.926 100 57.3916
131.492 100 58.4772
131.293 100 59.8492
131.529 100 61.8827
131.168 100 62.8687
137.298 100 75.2414
138.479 100 77.7164
139.574 100 77.8664
140.644 100 77.5311
141.734 100 77.1645
142.727 100 76.7882
143.821 100 76.4048
144.863 100 75.9159
145.896 100 75.4939
147.973 100 75.7796
149.041 100 75.2394
149.966 100 75.8858
150.937 100 75.4774
73.5401 100 76.2661
74.5639 100 76.9014
75.6482 100 76.3219
77.5297 100 76.1745
78.8982 100 76.9439
79.9854 100 77.2067
80.9414 100 77.6459
81.9739 100 78.0943
82.9542 100 77.5406
84.0768 100 78.0013
85.1611 100 80.3194
88.4943 100 77.9714
88.3868 100 76.1084
95.0219 100 59.0196
91.8264 100 59.9358
92.387 100 58.7667
95.4133 100 57.8549
95.4088 100 56.4638
95.1088 100 54.1632
96.2652 100 54.2565
95.7541 100 53.1442
103.023 100 49.1403
104.98 100 43.2486
107.266 100 43.3979
106.913 100 42.3865
108.293 100 44.0788
109.399 100 43.1512
110.468 100 43.7033
107.917 100 41.5998
110.579 100 27.4897
109.733 100 28.5034
116.185 100 40.1455
112.932 100 42.4798
114.562 100 43.1698
116.811 100 42.317
117.33 100 40.387
117.928 100 42.8513
117.977 100 43.917
123.074 100 48.8483
128.516 100 52.1888
128.199 100 53.2219
128.771 100 55.3053
130.99 100 55.9958
130.856 100 57.3102
129.862 100 57.9883
130.333 100 61.8534
130.953 100 61.0155
137.256 100 77.2744
137.618 100 78.3393
140.116 100 79.7918
140.249 100 78.6886
141.631 100 78.1643
142.688 100 77.8674
143.657 100 77.6303
144.734 100 77.0435
145.777 100 76.5829
146.885 100 76.2014
148.757 100 76.6306
149.764 100 77.021
150.871 100 76.591
73.2945 100 77.3525
74.6635 100 78.043
75.5659 100 77.3716
76.6834 100 76.8038
77.7977 100 77.273
78.7075 100 77.9739
80.0872 100 78.2642
81.1721 100 78.8522
82.2615 100 79.3236
83.106 100 78.5992
84.1257 100 79.2993
86.055 100 78.0732
88.5909 100 79.2529
87.8208 100 75.2051
89.325 100 75.6526
93.7713 100 59.0538
96.1387 100 58.7629
97.1803 100 58.248
96.3604 100 57.1293
95.673 100 55.3283
97.1904 100 53.2894
99.0045 100 52.4022
103.331 100 48.0956
104.819 100 46.8971
106.123 100 43.6264
106.913 100 44.4387
108.411 100 46.3857
109.38 100 44.4007
111.866 100 42.3915
110.967 100 41.7159
114.248 100 41.1426
113.428 100 43.451
115.637 100 43.4944
115.514 100 44.6389
116.964 100 43.4347
119.002 100 43.2415
118.992 100 44.4772
122.444 100 47.7643
125.377 100 53.7693
127.023 100 53.4811
128.202 100 54.348
129.891 100 56.3852
128.27 100 58.0863
129.347 100 59.0542
130.511 100 58.9806
136.275 100 75.5289
139.144 100 71.5678
137.03 100 79.3372
138.962 100 78.8052
141.286 100 79.2483
142.384 100 78.9408
143.077 100 79.8423
143.956 100 79.0526
144.672 100 78.2786
145.633 100 77.6792
146.716 100 77.2703
147.747 100 76.9128
148.535 100 77.7209
149.724 100 78.2724
150.631 100 77.7061
72.4976 100 78.4218
73.5924 100 78.875
75.5969 100 78.5851
76.642 100 77.8911
77.6556 100 78.3513
77.7298 100 80.7049
80.1596 100 79.6632
81.1448 100 80.1165
82.0808 100 80.4969
83.2398 100 79.9134
86.2411 100 80.5849
87.2575 100 78.0814
88.8794 100 80.3411
88.6873 100 74.598
94.5982 100 60.114
94.2669 100 57.8993
95.8413 100 59.8105
98.1756 100 58.7767
96.7626 100 56.0447
97.1562 100 54.9778
98.2004 100 53.2643
100.231 100 53.2626
104.438 100 48.7841
105.807 100 44.8223
109.596 100 46.6428
108.699 100 45.1816
105.755 100 48.8132
109.701 100 45.56
105.005 100 49.7358
106.861 100 48.8701
119.318 100 50.1459
117.192 100 49.5569
115.011 100 45.6516
115.924 100 49.9182
116.669 100 46.973
116.16 100 45.5107
117.019 100 44.5082
121.408 100 48.6325
122.625 100 50.8628
126.341 100 54.3877
127.289 100 55.0036
128.832 100 56.4273
127.895 100 56.9701
128.004 100 59.128
130.248 100 60.1145
129.574 100 60.9272
136.418 100 74.4629
130.505 100 78.3911
138.107 100 79.5506
140.929 100 80.3788
141.929 100 80.1732
143.149 100 80.9773
144.225 100 80.0785
145.409 100 79.3702
146.414 100 79.9325
146.309 100 78.4288
147.504 100 78.1078
148.484 100 78.7561
150.601 100 78.8911
151.558 100 78.4442
72.6685 100 79.4839
73.7309 100 79.9241
74.7055 100 79.161
75.6355 100 79.7816
76.56 100 79.1618
76.5846 100 80.3125
77.7982 100 79.6342
80.2451 100 80.9105
81.2341 100 81.2874
82.5916 100 81.4482
83.6668 100 81.1003
84.2406 100 82.0426
86.0168 100 79.5458
85.7753 100 81.6655
84.6274 100 83.3281
90.2219 100 79.5331
95.7869 100 61.9513
97.2147 100 59.3846
98.9447 100 57.0016
98.1623 100 57.749
98.5381 100 55.5915
98.2125 100 54.5106
103.803 100 50
105.242 100 45.8699
107.512 100 45.402
108.755 100 47.4107
107.284 100 46.6522
104.762 100 50.847
105.922 100 50.7841
107.908 100 51.9705
117.987 100 50.4469
120.304 100 50.7847
120.822 100 51.854
117.732 100 47.4005
116.792 100 48.094
117.515 100 46.1977
118.088 100 45.0705
122.006 100 49.6461
125.196 100 55.0771
127.814 100 55.9322
126.911 100 56.4229
126.48 100 57.4623
127.117 100 58.4017
128.809 100 60.027
131.38 100 77.7117
140.372 100 82.4141
139.872 100 80.8706
138.735 100 80.464
140.91 100 81.481
141.459 100 82.4678
141.86 100 81.1884
144.541 100 81.1364
145.594 100 81.7306
145.534 100 80.5887
147.605 100 80.4031
147.412 100 79.3048
148.534 100 79.8523
149.505 100 79.4312
150.707 100 80.0739
151.627 100 79.4964
72.5949 100 80.6682
73.7117 100 80.986
74.7398 100 80.3666
75.6981 100 81.0745
76.629 100 82.6701
74.8421 100 83.9482
76.7779 100 81.5896
78.8873 100 81.3717
79.8581 100 82.0432
78.8788 100 82.5031
81.737 100 82.3611
81.7778 100 83.4476
82.7102 100 82.6117
83.4494 100 83.5396
85.5549 100 82.7445
89.5106 100 78.756
96.9873 100 61.8627
97.0517 100 60.5299
99.2393 100 58.1285
100.806 100 56.5081
[...]
POINT_DATA 1600
SCALARS mass double
LOOKUP_TABLE default
1
1
1
1
1
1
1
1
1
1
1
1
1
1
1
1
1
1
1
1
1
1
1
1
1
1
1
1
1
1
1
1
1
1
1
1
1
1
1
1
1
1
1
1
1
1
1
1
1
1
1
1
1
1
1
1
1
1
1
1
1
1
1
1
1
1
1
1
1
1
1
1
1
1
1
1
1
1
1
1
1
1
1
1
1
1
1
1
1
1
1
1
1
1
1
1
1
1
1
1
1
1
1
1
1
1
1
1
1
1
1
1
1
1
1
1
1
1
1
1
1
1
1
1
1
1
1
1
1
1
1
1
1
1
1
1
1
1
1
1
1
1
1
1
1
1
1
1
1
1
1
1
1
1
1
1
1
1
1
1
1
1
1
1
1
1
1
1
1
1
1
1
1
1
1
1
1
1
1
1
1
1
1
1
1
1
1
1
1
1
1
1
1
1
1
1
1
1
1
1
1
1
1
1
1
1
1
1
1
1
1
1
1
1
1
1
1
1
1
1
1
1
1
1
1
1
1
1
1
1
1
1
1
1
1
1
1
1
1
1
1
1
1
1
1
1
1
1
1
1
1
1
1
1
1
1
1
1
1
1
1
1
1
1
1
1
1
1
1
1
1
1
1
1
1
1
1
1
1
1
1
1
1
1
1
1
1
1
1
1
1
1
1
1
1
1
1
1
1
1
1
1
1
1
1
1
1
1
1
1
1
1
1
1
1
1
1
1
1
1
1
1
1
1
1
1
1
1
1
1
1
1
1
1
1
1
1
1
1
1
1
1
1
1
1
1
1
1
1
1
1
1
1
1
1
1
1
1
1
1
1
1
1
1
1
1
1
1
1
1
1
1
1
1
1
1
1
1
1
1
1
1
1
1
1
1
1
1
1
1
1
1
1
1
1
1
1
1
1
1
1
1
1
1
1
1
1
1
1
1
1
1
1
1
1
1
1
1
1
1
1
1
1
1
1
1
1
1
1
1
1
1
1
1
1
1
1
1
1
1
1
1
1
1
1
1
1
1
1
1
1
1
1
1
1
1
1
1
1
1
1
1
1
1
1
1
1
1
1
1
1
1
1
1
1
1
1
1
1
1
1
1
1
1
1
1
1
1
1
1
1
1
1
1
1
1
1
1
1
1
1
1
1
1
1
1
1
1
1
1
1
1
1
1
1
1
1
1
1
1
1
1
1
1
1
1
1
1
1
1
1
1
1
1
1
1
1
1
1
1
1
1
1
1
1
1
1
1
1
1
1
1
1
1
1
1
1
1
1
1
1
1
1
1
1
1
1
1
1
1
1
1
1
1
1
1
1
1
1
1
1
1
1
1
1
1
1
1
1
1
1
1
1
1
1
1
1
1
1
1
1
1
1
1
1
1
1
1
1
1
1
1
1
1
1
1
1
1
1
1
1
1
1
1
1
1
1
1
1
1
1
1
1
1
1
1
1
1
1
1
1
1
1
1
1
1
1
1
1
1
1
1
1
1
1
1
1
1
1
1
1
1
1
1
1
1
1
1
1
1
1
1
1
1
1
1
1
1
1
1
1
1
1
1
1
1
1
1
1
1
1
1
1
1
1
1
1
1
1
1
1
1
1
1
1
1
1
1
1
1
1
1
1
1
1
1
1
1
1
1
1
1
1
1
1
1
1
1
1
1
1
1
1
1
1
1
1
1
1
1
1
1
1
1
1
1
1
1
1
1
1
1
1
1
1
1
1
1
1
1
1
1
1
1
1
1
1
1
1
1
1
1
1
1
1
1
1
1
1
1
1
1
1
1
1
1
1
1
1
1
1
1
1
1
1
1
1
1
1
1
1
1
1
1
1
1
1
1
1
1
1
1
1
1
1
1
1
1
1
1
1
1
1
1
1
1
1
1
1
1
1
1
1
1
1
1
1
1
1
1
1
1
1
1
1
1
1
1
1
1
1
1
1
1
1
1
1
1
1
1
1
1
1
1
1
1
1
1
1
1
1
1
1
1
1
1
1
1
1
1
1
1
1
1
1
1
1
1
1
1
1
1
1
1
1
1
1
1
1
1
1
1
1
1
1
1
1
1
1
1
1
1
1
1
1
1
1
1
1
1
1
1
1
1
1
1
1
1
1
1
1
1
1
1
1
1
1
1
1
1
1
1
1
1
1
1
1
1
1
1
1
1
1
1
1
1
1
1
1
1
1
1
1
1
1
1
1
1
1
1
1
1
1
1
1
1
1
1
1
1
1
1
1
1
1
1
1
1
1
1
1
1
1
1
1
1
1
1
1
1
1
1
1
1
1
1
1
1
1
1
1
1
1
1
1
1
1
1
1
1
1
1
1
1
1
1
1
1
1
1
1
1
1
1
1
1
1
1
1
1
1
1
1
1
1
1
1
1
1
1
1
1
1
1
1
1
1
1
1
1
1
1
1
1
1
1
1
1
1
1
1
1
1
1
1
1
1
1
1
1
1
1
1
1
1
1
1
1
1
1
1
1
1
1
1
1
1
1
1
1
1
1
1
1
1
1
1
1
1
1
1
1
1
1
1
1
1
1
1
1
1
1
1
1
1
1
1
1
1
1
1
1
1
1
1
1
1
1
1
1
1
1
1
1
1
1
1
1
1
1
1
1
1
1
1
1
1
1
1
1
1
1
1
1
1
1
1
1
1
1
1
1
1
1
1
1
1
1
1
1
1
1
1
1
1
1
1
1
1
1
1
1
1
1
1
1
1
1
1
1
1
1
1
1
1
1
1
1
1
1
1
1
1
1
1
1
1
1
1
1
1
1
1
1
1
1
1
1
1
1
1
1
1
1
1
1
1
1
1
1
1
1
1
1
1
1
1
1
1
1
1
1
1
1
1
1
1
1
1
1
1
1
1
1
1
1
1
1
1
1
1
1
1
1
1
1
1
1
1
1
1
1
1
1
1
1
1
1
1
1
1
1
1
1
1
1
1
1
1
1
1
1
1
1
1
1
1
1
1
1
1
1
1
1
1
1
1
1
1
1
1
1
1
1
1
1
1
1
1
1
1
1
1
1
1
1
1
1
1
1
1
1
1
1
1
1
1
1
1
1
1
1
1
1
1
1
1
1
1
1
1
1
1
1
1
1
1
1
1
1
1
1
1
1
1
1
1
1
1
1
1
1
1
1
1
1
1
1
1
1
1
1
1
1
1
1
1
1
1
1
1
1
1
1
1
1
1
1
1
1
1
1
1
1
1
1
1
1
1
1
1
1
1
1
1
1
1
1
1
1
1
1
1
1
1
1
1
1
1
1
1
1
1
1
1
1
1
1
1
1
1
1
1
1
1
1
1
1
1
1
1
1
1
1
1
1
1
1
1
1
1
1
1
1
1
1
1
1
1
1
1
1
1
1
1
1
1
1
1
1
1
1
1
1
1
1
1
1
1
1
1
1
1
1
1
1
1
1
1
1
1
1
1
1
1
1
1
1
1
1
1
1
1
1
1
1
1
1
1
1
1
1
1
1
1
1
1
1
1
1
1
1
1
1
1
1
1
1
1
1
1
1
1
1
1
1
1
1
1
1
1
1
1
1
1
1
1
1
1
1
1
1
1
1
1
1
1
1
1
1
1
1
1
1
1
1
1
1
1
1
1
1
1
1
1
1
1
1
1
1
VECTORS force double
4.13664 0 24.759
3.76149 0 -36.9478
-50.9128 0 -85.1869
-15.9245 0 17.6135
-2.83119 0 18.6222
12.1676 0 4.53941
-18.3866 0 3.37798
80.9465 0 -19.8578
-2.67456 0 9.51407
-7.17225 0 19.893
27.0669 0 7.36692
-30.7956 0 21.3676
-11.7014 0 -17.3758
-48.4012 0 -25.1332
0 0 0
-15.6456 0 -11.4061
50.5052 0 -51.1885
-14.4113 0 3.35029
0 0 0
5.26721 0 4.19663
24.2322 0 34.0656
-6.40894 0 15.1094
-60.6738 0 42.2684
36.6217 0 -23.9842
21.1207 0 -5.92197
-9.17421 0 -20.3148
7.37299 0 10.4008
0.864608 0 3.14097
15.3136 0 2.22892
7.23846 0 10.666
3.27237 0 15.5413
12.8395 0 -15.7799
-6.13451 0 1.41844
-9.24706 0 7.6448
14.3128 0 -6.18855
-6.42327 0 1.15447
-7.75926 0 -8.14214
18.9731 0 -1.59743
8.46812 0 -1.59533
7.19264 0 -14.0532
-8.51504 0 -3.71354
0 0 0
136.509 0 -14.3073
2.01873 0 12.025
-6.7544 0 5.52618
31.6161 0 18.2762
-10.7109 0 18.4187
-33.1475 0 -24.4294
5.20383 0 -11.942
-8.83845 0 -22.3033
5.29973 0 15.1607
11.3172 0 19.7436
16.4363 0 -52.9356
-16.8059 0 -2.31888
4.96881 0 5.45454
20.7637 0 3.59092
-22.1222 0 4.93
-9.06288 0 16.7442
2.32316 0 9.98374
17.5526 0 8.82983
0.611641 0 0.991496
9.9076 0 75.7269
61.3666 0 23.496
-6.70588 0 1.05745
-10.1691 0 11.2525
-46.7194 0 22.5524
-14.7522 0 -83.9436
-22.1212 0 -26.994
-1.47001 0 8.12596
4.72946 0 3.38119
-33.935 0 -26.0943
72.6551 0 11.3707
43.5941 0 22.473
13.6352 0 -6.37058
-0.0377676 0 59.9626
-47.3368 0 -36.9979
11.8057 0 3.25428
30.3462 0 8.73866
2.12325 0 14.2914
-3.40231 0 16.8887
-30.5373 0 -59.3187
0.0984568 0 0.190216
-78.3724 0 -19.4231
-8.83339 0 16.7853
0.608901 0 -10.8144
-3.98418 0 1.41535
-49.7088 0 31.9473
36.5814 0 -1.28721
0 0 0
3.07444 0 -2.50767
-20.307 0 6.18455
0 0 0
32.6724 0 50.7166
-4.23179 0 12.1698
-10.5756 0 -10.5609
-19.6326 0 18.9198
-13.7753 0 -0.966479
-7.23684 0 -24.1957
0 0 0
-18.237 0 -3.64813
-4.18773 0 -2.14638
-10.7676 0 9.92164
6.18931 0 7.38734
-19.5845 0 -0.1016
-20.5154 0 3.49979
-3.04333 0 -17.9369
45.2093 0 -3.6923
10.4217 0 4.00644
9.8554 0 -9.16253
-4.16093 0 17.0817
4.29327 0 7.06789
8.02117 0 9.28006
-1.57335 0 60.8655
-43.8654 0 26.7869
41.3608 0 10.5254
0.90413 0 -14.7758
-39.0192 0 28.2633
41.8493 0 -1.97682
-26.4116 0 -36.5626
-15.6313 0 11.5548
-36.8978 0 -33.1592
87.267 0 2.98857
5.28568 0 33.2907
-11.3367 0 -30.2801
32.5375 0 -3.55498
-52.9335 0 -7.55379
18.5649 0 -69.5815
6.11794 0 32.3039
-26.1659 0 46.4272
20.7216 0 -20.1008
70.3956 0 6.95746
-8.3086 0 -6.21293
99.6384 0 24.9075
-15.8775 0 -6.60773
-8.57714 0 28.7004
-25.9421 0 5.3214
-1.02496 0 0.200284
7.32494 0 -6.45738
6.02379 0 1.87498
-23.317 0 -25.1271
3.36652 0 7.42913
20.6456 0 -12.0473
1.74079 0 -120.522
1.31888 0 -28.4524
-0.0984568 0 -0.190216
32.5399 0 93.4342
-24.1017 0 0.575042
4.88994 0 14.6017
6.19197 0 -16.2344
9.77433 0 -24.2999
-28.6132 0 -19.6193
-6.61458 0 -25.1939
10.5475 0 -7.35859
0.111575 0 0.502598
27.5935 0 -2.63875
3.57742 0 -35.4795
21.6477 0 -14.8347
9.22869 0 -15.1742
-34.3978 0 49.5053
5.09833 0 22.2068
-4.64706 0 -0.870413
-7.44336 0 -6.41791
0.10978 0 0.243537
3.1007 0 8.20552
-23.1326 0 -1.32338
4.37057 0 -11.6474
2.68832 0 3.55567
45.8946 0 -15.7089
12.0752 0 -4.4844
2.1452 0 -12.1746
-17.428 0 -51.1343
30.9017 0 -51.9735
-8.67232 0 -4.69012
-8.54229 0 -23.8334
20.9929 0 -44.3215
-23.5405 0 19.3727
28.2758 0 -8.2041
8.53289 0 1.99012
-13.6359 0 33.1233
13.1433 0 8.38668
-43.8171 0 -7.86443
-1.82465 0 21.8456
-6.43839 0 10.5444
-7.34688 0 6.89215
9.30292 0 -1.54149
9.38546 0 4.63596
10.8635 0 61.0305
27.22 0 27.6886
53.706 0 -54.2064
-59.6365 0 17.1839
5.42161 0 -11.5541
-50.5016 0 -62.4495
-13.9642 0 -28.4831
-1.10351 0 13.4686
50.0013 0 56.3075
-27.8289 0 -85.6415
-7.4797 0 -11.9334
-16.4954 0 3.66918
-34.7323 0 46.5809
23.044 0 -39.8695
16.5992 0 5.19881
12.7444 0 -48.752
15.8998 0 18.7221
-19.7474 0 16.5172
0.0531878 0 119.219
0.196544 0 -5.90599
-70.2622 0 -6.27418
42.5709 0 -17.3601
33.0537 0 -47.271
41.9091 0 -13.1862
4.55196 0 4.48784
0 0 0
1.01365 0 2.33506
-17.5336 0 51.8732
0.548667 0 9.00123
4.63399 0 0.749491
-34.0755 0 7.84177
-5.52218 0 13.7209
-11.0186 0 -12.7704
30.4034 0 0.000547194
-144.675 0 51.3873
28.9906 0 -6.14762
25.3399 0 19.3738
15.9515 0 -7.71079
-5.778 0 -8.63406
40.1071 0 -1.60357
-12.8296 0 41.3656
46.8101 0 -52.7397
9.38572 0 -23.0083
-12.4351 0 -26.372
8.92725 0 65.0062
-22.5822 0 -65.9573
34.3006 0 -28.3581
-14.6691 0 16.3192
-10.3243 0 45.6618
12.264 0 0.0934638
-3.57716 0 -6.05488
-11.0143 0 -8.73417
-40.6376 0 16.8072
27.693 0 -32.9147
18.3913 0 18.2393
-10.1591 0 -16.2878
-0.50653 0 -44.6819
46.9652 0 -12.0708
-6.09574 0 -50.2759
-49.1544 0 -49.8869
65.8533 0 5.65462
18.6474 0 18.0125
-50.9429 0 -4.11791
6.40284 0 35.9154
-4.15244 0 -5.54435
0.178626 0 13.5603
-40.8916 0 47.1799
-8.61824 0 -9.2795
1.10454 0 3.57237
10.3935 0 4.25632
4.342 0 3.51338
1.13156 0 -2.77356
2.28227 0 -3.03707
-6.17811 0 -4.36738
18.6515 0 46.0009
8.95071 0 18.1932
19.8731 0 -31.0378
22.9597 0 17.1657
5.7046 0 -7.04962
-7.24227 0 -5.71527
10.4751 0 72.697
-22.4612 0 -11.2307
-19.8015 0 1.92029
0.500818 0 7.95936
7.18371 0 -9.01035
6.6889 0 -3.21443
22.1886 0 -9.37168
-6.35888 0 -2.66304
-4.6067 0 7.16348
7.29778 0 -3.84126
-0.837965 0 -47.465
17.6079 0 31.5443
-17.7076 0 -3.51544
10.8234 0 -9.56084
-6.86002 0 23.869
4.84568 0 -3.67644
-33.2057 0 -14.6179
-29.9857 0 -4.26349
8.27137 0 7.90165
-18.1251 0 37.3412
-53.4959 0 -85.9036
81.9427 0 37.7492
-27.1799 0 31.217
-87.2981 0 -73.8797
26.7285 0 13.0294
-45.2263 0 97.2421
-120.964 0 38.7514
135.649 0 -42.8592
-10.5747 0 8.30139
8.52367 0 6.29405
-7.32757 0 -35.6643
26.8677 0 -36.4894
15.0794 0 7.51567
-16.4826 0 7.49513
8.97865 0 14.3535
-26.9799 0 -12.3308
21.7689 0 51.6318
-34.0368 0 10.7662
-8.14037 0 -15.9087
0.51471 0 38.2782
-23.6603 0 62.0385
-15.006 0 9.74799
-18.428 0 3.41138
9.40436 0 30.9136
10.1861 0 -24.1993
-10.3646 0 25.9103
-39.6296 0 10.1377
-49.6486 0 6.6179
31.3415 0 -22.7607
27.2827 0 -23.4272
11.4761 0 -17.488
-18.1983 0 4.85124
-7.2487 0 5.29754
2.83419 0 -4.76435
-122.169 0 61.4657
-6.49195 0 14.6186
15.9733 0 -6.48408
-19.6726 0 -68.7066
-6.72591 0 3.20592
-5.49988 0 16.467
-2.54212 0 -35.7225
46.2042 0 -53.0576
-28.5912 0 -0.703482
7.56883 0 -5.53088
4.28551 0 4.83325
13.8045 0 7.87679
13.5313 0 4.02341
-4.32458 0 -20.0458
-10.3523 0 -22.7749
-12.3389 0 19.9252
6.12706 0 -24.5784
-1.75197 0 17.7374
10.3835 0 8.8987
22.8592 0 12.3569
-27.5976 0 -2.5693
47.1997 0 -5.23678
0.444612 0 -24.7094
5.08363 0 -8.38461
-14.0415 0 8.72435
-57.2331 0 14.2729
0 0 0
-24.4838 0 -12.0684
0.622393 0 -4.59046
-15.2535 0 4.97959
9.87277 0 27.1618
2.05452 0 -0.23141
-42.109 0 -3.51156
27.163 0 -37.7867
-56.6664 0 -64.5882
-26.5739 0 33.0104
-28.0072 0 14.2382
23.2416 0 -56.3808
-60.5567 0 -2.84181
33.4062 0 2.39449
13.8206 0 -23.9467
5.16862 0 -47.9824
52.3873 0 -14.6466
-14.7314 0 19.5805
-8.05946 0 30.1862
-11.4311 0 42.7745
-3.76101 0 -9.3407
-75.3818 0 -31.2603
88.9259 0 11.2804
-27.9861 0 16.1411
11.454 0 48.6521
8.13631 0 58.5471
12.3118 0 1.90345
32.616 0 -3.86591
6.06582 0 -20.576
14.119 0 11.9911
-3.63216 0 13.6656
10.1337 0 78.5244
-16.2511 0 -1.65795
0.850596 0 -2.99819
104.957 0 0.702228
-14.2739 0 3.96704
-3.55372 0 -8.54443
40.7582 0 18.2018
-17.6092 0 11.3922
-78.7142 0 41.5035
-67.187 0 -86.7316
15.8841 0 -14.1131
11.6995 0 7.67744
11.1204 0 -9.80388
6.06261 0 3.61943
-3.95099 0 5.54375
8.99171 0 -3.00723
11.2647 0 -3.56194
8.48629 0 -5.94476
16.6413 0 10.8542
-0.161253 0 34.0932
5.87896 0 14.8918
1.71572 0 -8.12641
-7.84099 0 2.45282
-13.6137 0 -20.8826
-21.554 0 -7.00721
-14.2459 0 71.5706
4.72224 0 35.611
-0.27444 0 -32.6848
-14.4131 0 27.149
10.4218 0 -13.1542
8.02603 0 18.701
5.27408 0 -16.1908
18.7605 0 75.9468
99.7939 0 -109.027
-12.4291 0 -13.3106
6.64598 0 26.8693
-4.04357 0 -0.282002
21.3675 0 -2.31768
78.3747 0 76.4069
-13.4065 0 5.33109
-1.89403 0 51.0139
-15.4529 0 39.9445
18.6549 0 -58.127
6.21664 0 36.9749
-3.66189 0 -4.50349
-41.2308 0 34.6977
6.16879 0 -17.4105
18.9273 0 -8.62367
23.0211 0 16.9695
-17.167 0 -34.3712
-33.196 0 -18.3522
46.8222 0 10.0378
-3.82957 0 29.3937
-10.2633 0 -17.8067
9.78364 0 19.1339
-20.4403 0 -40.0207
2.34679 0 -19.5987
-15.2681 0 9.97923
16.1579 0 27.4096
19.8141 0 6.9834
-12.6678 0 -2.79869
20.1896 0 -7.15447
-3.08789 0 -57.7843
4.50205 0 -3.81249
-56.9716 0 20.8262
14.4295 0 1.9267
24.3935 0 -7.40249
63.7764 0 -12.842
5.75914 0 11.1964
9.14256 0 -1.41121
-3.93687 0 -2.36364
-12.9757 0 3.68991
-24.8126 0 -10.8835
9.19819 0 -0.0220741
3.61377 0 8.9458
7.29629 0 -3.47382
-7.23878 0 -15.0584
8.38198 0 -1.50922
6.9217 0 1.71209
-34.8056 0 7.93956
-2.64263 0 2.01841
25.9747 0 -28.9891
76.305 0 -65.2061
-26.089 0 41.7638
1.54651 0 5.78013
2.66189 0 -2.63018
85.1479 0 -20.5449
-3.22543 0 -10.8088
15.9286 0 -30.7517
7.69389 0 6.69022
18.1805 0 2.35693
-122.512 0 22.7441
22.8818 0 2.32291
88.2377 0 6.12477
-0.95451 0 27.3936
-84.0699 0 28.8088
-13.2003 0 0.747249
-50.6009 0 9.41957
6.82097 0 -12.8143
-16.5886 0 21.9027
41.3206 0 -37.5932
-62.2083 0 -12.1
3.46829 0 6.55937
17.8144 0 -13.799
12.1551 0 36.7413
-14.5373 0 20.7523
58.6035 0 -39.4955
24.7902 0 33.3555
-22.4436 0 23.1866
-1.28353 0 -26.051
4.87068 0 0.752842
14.9807 0 -18.5148
-1.25562 0 32.6687
-105.296 0 -58.9975
-2.92363 0 20.9459
106.486 0 31.8557
-24.3993 0 -37.977
8.11261 0 8.50155
7.16059 0 -61.236
-27.1517 0 -17.6517
10.6078 0 -0.376709
-24.6215 0 13.1783
-42.6893 0 52.3357
53.1466 0 -39.1101
19.2748 0 -1.50016
27.2851 0 73.1833
-11.2829 0 -1.83667
-15.9566 0 -7.49949
-72.7755 0 -3.44487
-27.694 0 -5.0376
4.49388 0 14.0944
21.5276 0 -0.963715
28.7539 0 97.3193
9.1216 0 19.12
-13.1296 0 -22.2796
-2.00996 0 -77.46
-11.8179 0 -0.991284
-17.4522 0 5.23014
-7.03435 0 4.69261
1.86636 0 -4.02898
-1.29891 0 -7.48289
-25.1638 0 -4.91513
-13.9741 0 26.2281
-8.93799 0 -22.8312
-12.2552 0 -16.9086
-54.2249 0 16.6341
-14.3403 0 6.0658
-20.0958 0 60.512
-0.566782 0 -56.7523
-31.3346 0 63.7997
1.26846 0 -7.09063
-25.027 0 43.0084
67.9743 0 15.3502
3.26557 0 5.60039
1.3462 0 -5.75393
29.5694 0 -67.5706
14.3024 0 -51.7774
30.6579 0 -33.1903
26.7797 0 -4.56321
21.0446 0 20.9651
0.534335 0 13.3299
-0.448427 0 -2.32563
17.8023 0 42.8985
-50.8425 0 -46.7906
61.0281 0 30.0905
-50.8339 0 26.0382
36.563 0 -17.9646
-23.0388 0 -15.6122
-32.7044 0 -15.3085
-10.2677 0 5.99384
35.4156 0 -34.1998
-35.7863 0 -9.42238
21.223 0 -10.1486
-12.8685 0 4.36439
0.000391333 0 0.520138
-25.9233 0 21.7672
31.8825 0 -42.3864
56.5897 0 -18.1066
18.5283 0 -4.63233
8.60041 0 10.2747
1.65849 0 6.67745
29.0865 0 -13.0646
-43.7127 0 -21.7969
-35.1286 0 13.6407
2.8965 0 -14.0768
-14.6011 0 -0.864805
-7.7534 0 -19.009
5.64589 0 33.7187
22.0394 0 -4.87822
40.2295 0 58.5681
-1.93643 0 -53.1339
-16.6974 0 -0.82401
-7.97054 0 -16.9321
-25.5605 0 -19.8916
35.8044 0 20.8771
98.9243 0 96.457
-23.9092 0 -48.4929
-22.8897 0 8.95017
-13.3037 0 -6.49957
-4.31833 0 0.775865
-41.3611 0 -21.595
-2.12802 0 -6.14932
-3.23406 0 20.3044
3.42608 0 -10.7193
-20.4609 0 -9.76802
-71.3099 0 -0.402984
-16.4708 0 -9.14408
26.2985 0 -1.67141
-0.226595 0 5.1666
-53.3841 0 -168.788
-14.3488 0 -52.8062
86.9161 0 -78.8437
0.284746 0 -130.472
-17.8142 0 -16.9149
-1.64617 0 -46.033
-10.3931 0 88.3387
-117.055 0 -22.9933
12.0341 0 -1.94215
19.4411 0 -11.0933
-24.0766 0 -71.599
1.61122 0 -8.14311
-13.7626 0 -2.51766
-7.28738 0 -9.06999
-9.33435 0 33.0531
6.34075 0 9.74071
6.55584 0 -1.46432
-16.1944 0 39.035
177.19 0 -149.062
-28.4985 0 -48.8528
-4.34855 0 54.9281
22.1589 0 -0.703834
-47.7218 0 -10.3375
-4.24019 0 -36.797
25.5525 0 -99.67
30.5272 0 6.095
-90.3311 0 71.9642
34.0533 0 -90.0021
13.2068 0 -8.75626
-10.675 0 -7.0585
-8.6556 0 4.78229
116.968 0 66.7362
-16.8291 0 -0.0367493
7.92907 0 3.41426
12.4018 0 4.85855
49.7275 0 46.6632
-5.64393 0 -18.3499
57.5056 0 -25.7739
-16.9622 0 -0.64299
-21.2944 0 11.4495
5.23097 0 14.2088
-5.2649 0 -2.03005
-3.81168 0 -10.956
-8.66375 0 19.4024
16.2002 0 -12.4069
1.92031 0 -20.3198
-67.0209 0 -2.61706
23.4915 0 39.5877
17.4123 0 26.5497
12.764 0 -9.12871
-6.01334 0 20.2902
19.205 0 -6.35903
7.29288 0 18.9124
-5.57784 0 5.04866
-3.65451 0 29.7644
9.38224 0 -14.904
21.4033 0 17.1482
17.0738 0 3.62937
37.4582 0 -9.45782
3.7375 0 56.9885
6.0845 0 -11.7422
111.457 0 108.148
-2.80291 0 -3.53678
-84.5304 0 -17.9681
36.4585 0 110.228
-53.6646 0 61.3138
79.1001 0 33.6707
-5.5061 0 -12.8591
82.7528 0 -13.8859
1.82327 0 96.1795
79.0322 0 -82.8091
-10.4059 0 -7.81239
8.69913 0 5.77888
-9.44021 0 -4.37025
18.6015 0 9.49114
7.36561 0 -1.21927
-18.9821 0 0.227164
-184.52 0 135.157
-19.311 0 -12.0651
17.7319 0 5.09263
-55.4118 0 -55.8908
-11.9367 0 -7.59149
14.1841 0 2.16865
-16.4968 0 21.6076
-51.8152 0 135.798
28.0467 0 -0.780475
7.69282 0 19.7519
53.6362 0 63.7058
-62.6684 0 -38.8631
2.25864 0 0.277965
-5.16631 0 1.9582
-96.4866 0 -27.5193
-3.82732 0 -33.8791
27.1076 0 12.8621
-19.3106 0 -13.3121
17.4158 0 3.00421
-31.9228 0 7.722
3.50522 0 16.9462
38.6371 0 0.577294
2.41447 0 -53.8074
-3.06559 0 -6.7604
29.9029 0 8.45734
-2.32012 0 -0.0365621
-15.4268 0 18.052
0.369813 0 -19.1178
-11.7202 0 -13.0842
13.8378 0 -1.33041
7.60712 0 15.8794
0.592315 0 1.79318
9.15736 0 -15.9029
15.6076 0 -19.5714
77.7149 0 -69.8678
-7.85013 0 13.297
-22.8599 0 -62.5051
0.686305 0 -13.6693
12.4379 0 44.67
-19.0192 0 13.0932
-0.203673 0 22.3652
-44.3716 0 -7.80058
10.207 0 -9.29834
-48.1998 0 53.711
-11.1063 0 48.745
-40.3802 0 1.4728
-40.3016 0 -41.6121
-38.4779 0 -33.4727
29.5356 0 -103.398
10.9858 0 -1.02059
-37.716 0 49.1538
4.3335 0 30.8756
51.1447 0 -2.7189
-82.444 0 40.2036
-0.533583 0 20.4285
-15.2336 0 -3.7948
-5.66413 0 3.78191
16.6642 0 6.15426
-1.57462 0 -9.80217
0.196331 0 4.38367
1.65035 0 -4.99601
-10.9943 0 -8.55872
-2.82951 0 -63.222
-22.657 0 -19.5469
24.0782 0 5.37259
3.27983 0 -6.35386
11.3632 0 7.06026
53.0862 0 11.2877
-21.6349 0 15.1896
1.02045 0 -32.3431
-42.0274 0 8.44417
-6.40531 0 -7.04967
2.2911 0 -6.23415
5.12413 0 0.468952
-0.502285 0 10.0043
5.54601 0 -6.90553
-11.3732 0 -0.16067
-4.03337 0 8.55077
11.2107 0 18.2522
-7.26067 0 -2.46094
-56.6717 0 48.8407
-7.86544 0 -11.6215
39.3762 0 -14.1934
-12.8038 0 14.8712
-20.7908 0 -28.197
-123.632 0 58.3408
118.085 0 -39.535
9.38849 0 14.2257
1.30019 0 -18.8928
-11.4439 0 -1.35991
14.3738 0 13.4936
2.58728 0 -4.09699
26.8974 0 -9.20596
-4.20684 0 -19.1696
-10.6165 0 3.85432
-18.9196 0 14.6761
22.1157 0 10.9042
28.4512 0 -2.70813
39.1271 0 -32.2804
-61.9273 0 -93.3416
17.1057 0 -57.161
-2.1768 0 1.62175
8.95285 0 -1.46689
-1.84432 0 -10.2027
-12.8102 0 74.6046
27.1563 0 -19.0675
0.35199 0 10.1739
-0.152285 0 5.96561
3.25234 0 -2.55967
4.98561 0 -20.6112
-14.1955 0 0.794088
-11.3131 0 -21.7797
13.1785 0 -3.61474
9.87262 0 -2.52731
7.62095 0 -4.92733
-21.495 0 3.853
-8.50533 0 14.9127
-2.23958 0 -9.48439
16.001 0 9.11946
-8.15707 0 0.164797
0.480273 0 -15.4135
-72.874 0 -19.5069
104.832 0 2.63782
-0.672153 0 -16.4173
14.7594 0 0.498428
16.4831 0 11.6014
-7.50949 0 56.0132
-18.3621 0 -70.1021
5.55452 0 -1.1217
-2.99205 0 -6.82777
22.1147 0 20.4616
1.68975 0 21.8497
24.9567 0 8.21085
-6.78915 0 -0.791051
-5.7729 0 17.133
5.99364 0 2.39075
-13.5934 0 -3.88587
12.5743 0 -22.7455
4.15664 0 15.6947
11.9257 0 -13.8023
31.6204 0 -1.81099
2.58818 0 -47.0969
-11.9258 0 4.31521
-8.19918 0 -2.00328
14.1754 0 31.745
-3.52837 0 1.84451
4.31688 0 -5.05225
-19.3883 0 -0.564783
14.8401 0 -12.6009
-18.6098 0 79.8749
-0.14882 0 8.51461
-0.187419 0 11.854
-73.5429 0 84.7515
13.3122 0 -83.9952
4.94075 0 11.9654
12.1944 0 26.6179
-35.2947 0 0.450235
-39.7611 0 11.9303
58.9058 0 5.33806
-5.41356 0 115.744
-1.54411 0 4.50048
32.4666 0 50.7503
11.1436 0 -14.3925
8.4738 0 -1.06741
-20.7958 0 3.22666
66.9181 0 113.391
8.27534 0 -21.1299
-21.7092 0 104.153
-23.1752 0 41.1603
-6.04324 0 -13.9249
12.0048 0 1.15835
-12.6092 0 16.2546
-0.508845 0 18.5582
-17.9063 0 12.1207
24.9155 0 -2.92162
22.0037 0 1.98843
-30.4911 0 1.22216
-9.80585 0 -6.39494
15.5639 0 4.89918
-27.4837 0 -38.1722
-22.013 0 -12.3277
8.1409 0 39.1841
-2.68003 0 0.60758
-6.58535 0 48.0302
101.322 0 -49.4576
-19.0953 0 8.78147
-18.0128 0 -15.9175
11.08 0 -7.4086
44.9805 0 21.4766
-2.52959 0 2.00633
2.86504 0 53.0143
-40.7688 0 37.6065
23.7241 0 6.29074
-8.42675 0 -17.0793
-35.71 0 22.5764
36.0871 0 3.34252
-8.45563 0 -14.6084
-29.9013 0 -9.8187
8.07864 0 -3.91635
-62.8098 0 -12.5142
19.4866 0 2.73755
-30.5333 0 -19.5943
8.38983 0 -4.73339
-10.9985 0 0.97156
-0.491179 0 1.49722
-7.89256 0 9.69093
14.9695 0 5.13832
1.33191 0 -13.116
18.0564 0 13.6808
-39.7537 0 -36.2404
-30.6846 0 -44.9432
-0.612666 0 -14.696
8.19158 0 2.47128
1.45604 0 -2.15326
-39.7738 0 -12.3455
-8.33346 0 -24.4198
17.9456 0 -24.8786
-19.9703 0 6.77494
48.397 0 44.1011
-4.97953 0 -9.95535
-10.3772 0 5.53781
21.8501 0 -32.5723
20.1738 0 13.497
-8.20603 0 -0.475198
3.02199 0 24.7827
-1.06946 0 1.70344
-12.4724 0 23.6411