# vtk DataFile Version 3.0
SiWiRVisFile
ASCII
DATASET UNSTRUCTURED_GRID
POINTS 1600 DOUBLE
77.0448 100 74.0487
78.094 100 74.3065
79.1993 100 74.832
81.003 100 74.8541
82.0685 100 75.1239
83.216 100 75.3341
84.6393 100 75.4232
85.7737 100 75.6826
86.8468 100 75.6365
86.0149 100 74.5768
90.1577 100 75.754
91.1398 100 74.8793
89.9604 100 74.356
90.1586 100 73.0351
89.691 100 72.0991
92.4613 100 67.6574
93.6727 100 67.9622
95.5351 100 67.0604
94.2159 100 64.5881
97.5861 100 65.9821
104.178 100 54.3405
103.742 100 56.638
104.603 100 55.9501
106.16 100 54.9957
105.067 100 54.9794
107.309 100 54.9085
109.43 100 51.6619
110.336 100 50.9258
110.506 100 52.1625
111.544 100 51.6143
112.948 100 51.614
113.986 100 52.1626
114.156 100 50.9258
115.063 100 51.6618
117.183 100 54.9085
119.425 100 54.9794
118.332 100 54.9957
119.889 100 55.9501
120.751 100 56.638
120.314 100 54.3405
126.906 100 65.9824
130.276 100 64.5881
128.957 100 67.0603
130.82 100 67.9622
132.031 100 67.6574
134.802 100 72.0991
134.334 100 73.0351
134.532 100 74.3558
133.353 100 74.8795
134.335 100 75.7538
138.478 100 74.5768
137.646 100 75.6365
138.719 100 75.6826
139.853 100 75.4233
141.276 100 75.3341
142.424 100 75.1239
143.489 100 74.8541
145.293 100 74.832
146.398 100 74.3065
147.448 100 74.0487
77.273 100 75.1872
78.3192 100 75.5149
80.1479 100 75.5073
81.2126 100 75.902
82.328 100 76.3906
83.9365 100 76.2695
85.0633 100 76.5345
86.1166 100 76.6813
87.2021 100 76.9341
88.2725 100 77.3995
89.3665 100 76.8068
92.0672 100 75.5255
91.3448 100 73.7564
91.8296 100 72.5539
92.5032 100 71.5629
90.8402 100 72.0644
94.9002 100 67.9653
96.7259 100 66.6473
97.7409 100 67.8141
100.145 100 66.7186
103.595 100 55.4542
99.6263 100 60.7519
104.547 100 61.9567
109.974 100 55.2666
106.269 100 53.8782
107.951 100 55.8683
108.615 100 55.0329
109.332 100 54.2453
109.623 100 52.9746
111.387 100 52.9423
113.105 100 52.9433
114.87 100 52.9744
115.16 100 54.2454
115.877 100 55.033
116.541 100 55.8683
118.223 100 53.8782
114.518 100 55.2665
119.945 100 61.9575
124.866 100 60.7518
120.898 100 55.4542
124.348 100 66.718
126.751 100 67.8141
127.766 100 66.6471
129.592 100 67.9657
133.652 100 72.0644
131.989 100 71.5629
132.663 100 72.5539
133.148 100 73.7565
132.425 100 75.5255
135.126 100 76.8069
136.22 100 77.3995
137.29 100 76.9341
138.376 100 76.6813
139.429 100 76.5345
140.556 100 76.2695
142.164 100 76.3906
143.28 100 75.902
144.345 100 75.5073
146.173 100 75.5149
147.219 100 75.1872
77.3591 100 76.335
78.3599 100 76.6968
79.2075 100 76.0645
80.203 100 76.5947
81.3093 100 77.1087
83.1858 100 77.0216
84.189 100 77.3629
85.4337 100 77.6211
86.488 100 77.7164
87.43 100 78.1434
89.0621 100 78.2216
90.0869 100 78.5531
91.3191 100 77.8175
92.4404 100 74.3872
93.7318 100 71.8269
94.2608 100 70.8473
94.8118 100 69.3096
95.7954 100 68.69
96.5261 100 67.8987
98.6692 100 66.928
100.662 100 65.7484
103.585 100 62.8576
105.629 100 62.528
106.82 100 62.143
106.355 100 58.925
107.188 100 60.9579
107.756 100 59.9986
106.002 100 60.6393
110.501 100 54.3207
111.728 100 54.0977
112.764 100 54.0985
113.992 100 54.3201
118.489 100 60.6312
116.735 100 59.9991
117.304 100 60.9563
118.138 100 58.9249
117.676 100 62.144
118.862 100 62.5305
120.907 100 62.8588
123.83 100 65.7489
125.825 100 66.9261
127.965 100 67.8984
128.697 100 68.6902
129.681 100 69.3097
130.231 100 70.8479
130.76 100 71.8273
132.052 100 74.3872
133.173 100 77.8175
134.406 100 78.5527
135.43 100 78.2217
137.062 100 78.1434
138.004 100 77.7164
139.059 100 77.6211
140.303 100 77.3629
141.307 100 77.0216
143.183 100 77.1087
144.289 100 76.5947
145.285 100 76.0645
146.133 100 76.6968
147.133 100 76.335
77.3853 100 77.3686
78.5286 100 77.9679
79.3346 100 77.214
80.4582 100 77.7246
82.3875 100 77.5911
83.3638 100 78.116
84.5227 100 78.3774
85.6038 100 78.7487
86.6526 100 79.026
88.0133 100 79.0805
89.1327 100 79.2951
90.2827 100 79.6165
91.2525 100 78.9965
93.2179 100 73.5573
92.9053 100 72.5683
95.2443 100 72.4405
95.4168 100 71.2935
95.4138 100 70.2055
96.4803 100 69.5983
97.5591 100 68.8676
98.5889 100 68.5024
101.042 100 67.2679
104.645 100 62.9617
105.279 100 64.9587
105.459 100 63.8359
106.449 100 63.1919
109.001 100 63.302
110.119 100 62.8101
108.879 100 61.0384
111.277 100 55.5619
113.215 100 55.5616
115.611 100 61.0352
114.371 100 62.8101
115.488 100 63.3012
118.043 100 63.1939
119.034 100 63.8339
119.211 100 64.9611
119.848 100 62.9619
123.452 100 67.2676
125.903 100 68.5014
126.934 100 68.8675
128.012 100 69.5985
129.079 100 70.2052
129.076 100 71.2927
129.249 100 72.4399
131.587 100 72.5682
131.275 100 73.5563
133.24 100 78.9965
134.209 100 79.6164
135.36 100 79.295
136.479 100 79.0805
137.84 100 79.026
138.889 100 78.7487
139.97 100 78.3774
141.129 100 78.116
142.105 100 77.5911
144.034 100 77.7246
145.158 100 77.214
145.964 100 77.9679
147.107 100 77.3686
77.5359 100 78.4936
78.4507 100 79.2021
79.499 100 78.4919
81.5275 100 78.2081
82.4941 100 78.7454
83.5599 100 79.2165
84.6499 100 79.4289
85.8881 100 79.859
87.2834 100 79.9512
88.4004 100 80.1485
89.2378 100 81.0091
91.2616 100 80.0604
92.235 100 78.3981
94.0971 100 74.3443
94.1966 100 72.8013
96.26 100 73.0392
96.5063 100 71.9952
96.4213 100 70.6602
97.3725 100 70.1831
98.2682 100 69.6377
99.6677 100 67.8383
102.608 100 68.0362
106.309 100 64.4295
107.282 100 63.9767
107.791 100 63.0243
108.442 100 64.348
109.443 100 64.2368
110.742 100 64.5888
108.306 100 61.9743
111.489 100 56.5555
113.003 100 56.5552
116.184 100 61.9791
113.75 100 64.5885
115.049 100 64.2382
116.051 100 64.3438
116.703 100 63.0271
117.215 100 63.9751
118.187 100 64.4339
121.885 100 68.0366
124.825 100 67.8372
126.223 100 69.6378
127.119 100 70.1829
128.07 100 70.6597
127.986 100 71.995
128.235 100 73.0385
130.296 100 72.8013
130.397 100 74.3461
132.257 100 78.398
133.23 100 80.0604
135.255 100 81.0088
136.092 100 80.1484
137.209 100 79.9514
138.604 100 79.859
139.843 100 79.4289
140.933 100 79.2165
141.998 100 78.7454
142.965 100 78.2081
144.993 100 78.4919
146.042 100 79.2021
146.956 100 78.4936
77.3708 100 79.6656
78.3787 100 80.2665
79.4439 100 79.6547
80.5095 100 78.8263
81.5451 100 79.3444
82.4901 100 79.9152
83.6939 100 80.3374
84.8375 100 80.6207
85.9465 100 80.9916
87.1367 100 81.0738
88.1929 100 81.3012
90.267 100 80.7531
92.2568 100 80.6937
93.1196 100 77.83
93.8498 100 76.8204
95.0399 100 73.7786
97.2321 100 73.3046
97.5909 100 72.2061
97.8001 100 71.1004
99.6174 100 70.5297
99.484 100 69.2057
101.492 100 68.2623
103.814 100 67.7739
105.473 100 67.2232
105.513 100 65.9349
107.359 100 65.0264
108.519 100 65.4838
109.618 100 65.2706
111.675 100 65.1869
111.233 100 63.6472
113.265 100 63.6453
112.817 100 65.1848
114.873 100 65.2702
115.972 100 65.4803
117.132 100 65.0266
118.974 100 65.9372
119.021 100 67.2143
120.678 100 67.7731
123.002 100 68.2621
125.008 100 69.2065
124.875 100 70.5298
126.693 100 71.1013
126.901 100 72.2071
127.261 100 73.2987
129.454 100 73.7775
130.643 100 76.8208
131.372 100 77.8304
132.236 100 80.6938
134.226 100 80.753
136.3 100 81.3011
137.356 100 81.0739
138.546 100 80.9916
139.655 100 80.6207
140.798 100 80.3374
142.002 100 79.9152
142.947 100 79.3444
143.983 100 78.8263
145.048 100 79.6547
146.114 100 80.2665
147.122 100 79.6656
77.2132 100 80.7638
78.0334 100 81.4607
79.3927 100 80.7503
80.6254 100 79.9921
81.5377 100 80.7159
82.7649 100 81.0206
83.7892 100 81.4343
85.1073 100 81.7538
86.2523 100 81.9501
87.4069 100 82.1765
88.8775 100 82.2111
91.2323 100 81.2462
92.2627 100 81.9431
93.988 100 78.7207
95.6626 100 76.497
96.5651 100 74.2405
97.6557 100 75.0027
98.3657 100 72.963
98.9606 100 71.5085
100.462 100 69.8411
100.471 100 68.7603
102.558 100 69.0561
104.943 100 68.4206
106.651 100 66.6414
107.921 100 66.4018
109.197 100 66.7071
109.923 100 67.6179
110.673 100 65.7173
109.309 100 69.0485
110.485 100 69.1169
114.021 100 69.1091
115.185 100 69.0735
113.819 100 65.7179
114.559 100 67.6192
115.289 100 66.7168
116.572 100 66.4002
117.838 100 66.6395
119.548 100 68.4207
121.934 100 69.0563
124.022 100 68.7607
124.03 100 69.8412
125.532 100 71.5089
126.126 100 72.9639
126.833 100 75.0091
127.923 100 74.2382
128.831 100 76.4967
130.504 100 78.7213
132.231 100 81.9437
133.26 100 81.2462
135.615 100 82.2109
137.086 100 82.1767
138.24 100 81.9501
139.385 100 81.7536
140.703 100 81.4344
141.727 100 81.0207
142.955 100 80.7159
143.867 100 79.9921
145.1 100 80.7503
146.459 100 81.4607
147.279 100 80.7638
76.8964 100 81.8959
77.8298 100 82.5765
79.1011 100 81.7839
80.0314 100 82.3287
80.5265 100 81.3714
81.2002 100 82.1901
83.2049 100 82.2669
84.4074 100 82.6422
85.5315 100 82.8474
86.7407 100 83.0605
88.0075 100 83.4804
89.3206 100 83.2823
89.9138 100 82.1137
90.4088 100 83.2574
91.4299 100 83.9609
93.292 100 80.9932
96.8145 100 75.9746
98.3587 100 74.0281
99.5825 100 72.823
100.008 100 71.8509
100.746 100 70.9143
101.45 100 69.4198
103.675 100 68.8237
106.45 100 67.9233
107.578 100 67.8575
108.611 100 67.6896
108.251 100 68.9616
108.271 100 70.0808
109.822 100 69.9629
111.105 100 70.1965
113.393 100 70.1711
114.672 100 69.9625
116.175 100 70.0616
116.239 100 68.936
115.89 100 67.6912
116.921 100 67.8649
118.052 100 67.9328
120.816 100 68.8208
123.042 100 69.418
123.748 100 70.9144
124.484 100 71.8505
124.911 100 72.8218
126.135 100 74.0288
127.681 100 75.975
131.201 100 80.9925
133.063 100 83.9609
134.084 100 83.2574
134.578 100 82.114
135.172 100 83.2822
136.485 100 83.4805
137.752 100 83.0604
138.961 100 82.8474
140.085 100 82.6422
141.287 100 82.2669
143.292 100 82.1901
143.966 100 81.3714
144.461 100 82.3288
145.391 100 81.7839
146.663 100 82.5765
147.596 100 81.8959
76.8048 100 83.0489
77.9719 100 83.7065
78.9254 100 82.9495
79.7246 100 83.6903
80.8164 100 83.3251
81.8018 100 83.7446
82.7016 100 83.2505
83.7091 100 83.6022
84.7909 100 83.6495
85.4723 100 84.523
87.0173 100 84.1984
88.0884 100 84.5628
89.1791 100 84.4345
90.258 100 84.3854
92.5846 100 83.9044
93.0721 100 79.9363
97.119 100 77.0846
97.9013 100 76.397
99.433 100 74.203
100.6 100 74.1331
[...]
POINT_DATA 1600
SCALARS mass double
LOOKUP_TABLE default
1
1
1
1
1
1
1
1
1
1
1
1
1
1
1
1
1
1
1
1
1
1
1
1
1
1
1
1
1
1
1
1
1
1
1
1
1
1
1
1
1
1
1
1
1
1
1
1
1
1
1
1
1
1
1
1
1
1
1
1
1
1
1
1
1
1
1
1
1
1
1
1
1
1
1
1
1
1
1
1
1
1
1
1
1
1
1
1
1
1
1
1
1
1
1
1
1
1
1
1
1
1
1
1
1
1
1
1
1
1
1
1
1
1
1
1
1
1
1
1
1
1
1
1
1
1
1
1
1
1
1
1
1
1
1
1
1
1
1
1
1
1
1
1
1
1
1
1
1
1
1
1
1
1
1
1
1
1
1
1
1
1
1
1
1
1
1
1
1
1
1
1
1
1
1
1
1
1
1
1
1
1
1
1
1
1
1
1
1
1
1
1
1
1
1
1
1
1
1
1
1
1
1
1
1
1
1
1
1
1
1
1
1
1
1
1
1
1
1
1
1
1
1
1
1
1
1
1
1
1
1
1
1
1
1
1
1
1
1
1
1
1
1
1
1
1
1
1
1
1
1
1
1
1
1
1
1
1
1
1
1
1
1
1
1
1
1
1
1
1
1
1
1
1
1
1
1
1
1
1
1
1
1
1
1
1
1
1
1
1
1
1
1
1
1
1
1
1
1
1
1
1
1
1
1
1
1
1
1
1
1
1
1
1
1
1
1
1
1
1
1
1
1
1
1
1
1
1
1
1
1
1
1
1
1
1
1
1
1
1
1
1
1
1
1
1
1
1
1
1
1
1
1
1
1
1
1
1
1
1
1
1
1
1
1
1
1
1
1
1
1
1
1
1
1
1
1
1
1
1
1
1
1
1
1
1
1
1
1
1
1
1
1
1
1
1
1
1
1
1
1
1
1
1
1
1
1
1
1
1
1
1
1
1
1
1
1
1
1
1
1
1
1
1
1
1
1
1
1
1
1
1
1
1
1
1
1
1
1
1
1
1
1
1
1
1
1
1
1
1
1
1
1
1
1
1
1
1
1
1
1
1
1
1
1
1
1
1
1
1
1
1
1
1
1
1
1
1
1
1
1
1
1
1
1
1
1
1
1
1
1
1
1
1
1
1
1
1
1
1
1
1
1
1
1
1
1
1
1
1
1
1
1
1
1
1
1
1
1
1
1
1
1
1
1
1
1
1
1
1
1
1
1
1
1
1
1
1
1
1
1
1
1
1
1
1
1
1
1
1
1
1
1
1
1
1
1
1
1
1
1
1
1
1
1
1
1
1
1
1
1
1
1
1
1
1
1
1
1
1
1
1
1
1
1
1
1
1
1
1
1
1
1
1
1
1
1
1
1
1
1
1
1
1
1
1
1
1
1
1
1
1
1
1
1
1
1
1
1
1
1
1
1
1
1
1
1
1
1
1
1
1
1
1
1
1
1
1
1
1
1
1
1
1
1
1
1
1
1
1
1
1
1
1
1
1
1
1
1
1
1
1
1
1
1
1
1
1
1
1
1
1
1
1
1
1
1
1
1
1
1
1
1
1
1
1
1
1
1
1
1
1
1
1
1
1
1
1
1
1
1
1
1
1
1
1
1
1
1
1
1
1
1
1
1
1
1
1
1
1
1
1
1
1
1
1
1
1
1
1
1
1
1
1
1
1
1
1
1
1
1
1
1
1
1
1
1
1
1
1
1
1
1
1
1
1
1
1
1
1
1
1
1
1
1
1
1
1
1
1
1
1
1
1
1
1
1
1
1
1
1
1
1
1
1
1
1
1
1
1
1
1
1
1
1
1
1
1
1
1
1
1
1
1
1
1
1
1
1
1
1
1
1
1
1
1
1
1
1
1
1
1
1
1
1
1
1
1
1
1
1
1
1
1
1
1
1
1
1
1
1
1
1
1
1
1
1
1
1
1
1
1
1
1
1
1
1
1
1
1
1
1
1
1
1
1
1
1
1
1
1
1
1
1
1
1
1
1
1
1
1
1
1
1
1
1
1
1
1
1
1
1
1
1
1
1
1
1
1
1
1
1
1
1
1
1
1
1
1
1
1
1
1
1
1
1
1
1
1
1
1
1
1
1
1
1
1
1
1
1
1
1
1
1
1
1
1
1
1
1
1
1
1
1
1
1
1
1
1
1
1
1
1
1
1
1
1
1
1
1
1
1
1
1
1
1
1
1
1
1
1
1
1
1
1
1
1
1
1
1
1
1
1
1
1
1
1
1
1
1
1
1
1
1
1
1
1
1
1
1
1
1
1
1
1
1
1
1
1
1
1
1
1
1
1
1
1
1
1
1
1
1
1
1
1
1
1
1
1
1
1
1
1
1
1
1
1
1
1
1
1
1
1
1
1
1
1
1
1
1
1
1
1
1
1
1
1
1
1
1
1
1
1
1
1
1
1
1
1
1
1
1
1
1
1
1
1
1
1
1
1
1
1
1
1
1
1
1
1
1
1
1
1
1
1
1
1
1
1
1
1
1
1
1
1
1
1
1
1
1
1
1
1
1
1
1
1
1
1
1
1
1
1
1
1
1
1
1
1
1
1
1
1
1
1
1
1
1
1
1
1
1
1
1
1
1
1
1
1
1
1
1
1
1
1
1
1
1
1
1
1
1
1
1
1
1
1
1
1
1
1
1
1
1
1
1
1
1
1
1
1
1
1
1
1
1
1
1
1
1
1
1
1
1
1
1
1
1
1
1
1
1
1
1
1
1
1
1
1
1
1
1
1
1
1
1
1
1
1
1
1
1
1
1
1
1
1
1
1
1
1
1
1
1
1
1
1
1
1
1
1
1
1
1
1
1
1
1
1
1
1
1
1
1
1
1
1
1
1
1
1
1
1
1
1
1
1
1
1
1
1
1
1
1
1
1
1
1
1
1
1
1
1
1
1
1
1
1
1
1
1
1
1
1
1
1
1
1
1
1
1
1
1
1
1
1
1
1
1
1
1
1
1
1
1
1
1
1
1
1
1
1
1
1
1
1
1
1
1
1
1
1
1
1
1
1
1
1
1
1
1
1
1
1
1
1
1
1
1
1
1
1
1
1
1
1
1
1
1
1
1
1
1
1
1
1
1
1
1
1
1
1
1
1
1
1
1
1
1
1
1
1
1
1
1
1
1
1
1
1
1
1
1
1
1
1
1
1
1
1
1
1
1
1
1
1
1
1
1
1
1
1
1
1
1
1
1
1
1
1
1
1
1
1
1
1
1
1
1
1
1
1
1
1
1
1
1
1
1
1
1
1
1
1
1
1
1
1
1
1
1
1
1
1
1
1
1
1
1
1
1
1
1
1
1
1
1
1
1
1
1
1
1
1
1
1
1
1
1
1
1
1
1
1
1
1
1
1
1
1
1
1
1
1
1
1
1
1
1
1
1
1
1
1
1
1
1
1
1
1
1
1
1
1
1
1
1
1
1
1
1
1
1
1
1
1
1
1
1
1
1
1
1
1
1
1
1
1
1
1
1
1
1
1
1
1
1
1
1
1
1
1
1
1
1
1
1
1
1
1
1
1
1
1
1
1
1
1
1
1
1
1
1
1
1
1
1
1
1
1
1
1
1
1
1
1
1
1
1
1
1
1
1
1
1
1
1
1
1
1
VECTORS force double
-14.8561 0 4.59775
23.1222 0 30.7636
-1.17237 0 12.1107
1.51897 0 -37.4793
12.5534 0 21.295
-1.04598 0 17.3614
13.0631 0 5.40355
-38.7335 0 -37.9313
10.5183 0 11.946
2.24684 0 13.2323
1.9692 0 -6.70084
-7.97813 0 -4.72618
18.679 0 -0.242337
34.8192 0 47.2263
-13.6738 0 -40.4844
11.8303 0 2.94933
2.65419 0 -1.46468
23.4912 0 2.41212
0 0 0
16.1842 0 -1.58313
-11.9578 0 7.93072
-6.3638 0 -6.99879
-3.15 0 10.3636
16.5848 0 0.651589
4.20475 0 -13.3323
3.64378 0 2.39632
18.3936 0 9.48055
2.4779 0 22.3717
-3.74811 0 -5.69259
-8.90812 0 11.0527
8.88014 0 11.0038
3.80175 0 -5.6684
-2.49582 0 22.3724
-18.414 0 9.50058
-3.65495 0 2.40036
-4.20381 0 -13.3279
-16.5717 0 0.654692
3.14739 0 10.3605
6.36455 0 -6.99889
11.9589 0 7.92954
-16.2866 0 -1.53571
0 0 0
-23.3858 0 2.52203
-2.65418 0 -1.45831
-11.8301 0 2.95009
13.6729 0 -40.4826
-34.8149 0 47.2323
-18.6835 0 -0.249669
7.99271 0 -4.72132
-1.98227 0 -6.71136
-2.24581 0 13.233
-10.5189 0 11.9477
38.7369 0 -37.9269
-13.0596 0 5.40627
1.04659 0 17.3611
-12.5529 0 21.2947
-1.51827 0 -37.4794
1.1727 0 12.1105
-23.1213 0 30.7634
14.8554 0 4.59797
-0.0418139 0 -10.6594
-42.794 0 -13.5183
-12.1191 0 -7.43158
8.74013 0 44.1558
-36.9034 0 -20.1975
14.7566 0 -19.2671
-48.6242 0 2.91912
36.9819 0 27.7661
30.2552 0 -17.8896
3.11949 0 -2.04534
-5.40432 0 5.84869
0.584766 0 -12.6849
2.86752 0 -4.1106
-12.523 0 7.02331
-1.05068 0 -2.47563
-14.3114 0 7.42514
-6.84783 0 18.7863
-20.3847 0 28.8147
-10.5088 0 -42.55
-48.0865 0 -0.506408
11.764 0 -1.29315
0 0 0
-5.32031 0 -86.0372
-12.4104 0 5.84275
1.56681 0 7.25807
-20.4513 0 14.3516
-3.71027 0 -0.112997
36.4757 0 -21.3798
8.86685 0 -3.74578
-2.76996 0 -2.39772
2.794 0 -2.3759
-8.8795 0 -3.75222
-36.4755 0 -21.4001
3.66984 0 -0.153729
20.5026 0 14.3986
-1.56979 0 7.25799
12.3144 0 5.67378
5.35042 0 -86.9405
0 0 0
-11.7648 0 -1.29269
48.4631 0 -0.632037
10.6134 0 -42.6037
20.4009 0 28.8306
6.7755 0 18.6585
14.3256 0 7.41654
1.09176 0 -2.56013
12.497 0 7.02707
-2.86405 0 -4.10292
-0.585404 0 -12.6948
5.40817 0 5.85632
-3.11714 0 -2.04698
-30.2531 0 -17.8909
-36.9812 0 27.7658
48.6157 0 2.91026
-14.761 0 -19.2707
36.9044 0 -20.1982
-8.74018 0 44.1574
12.117 0 -7.43187
42.7943 0 -13.5185
0.0418178 0 -10.6593
-17.7146 0 -84.2577
-11.625 0 33.9918
60.0239 0 6.66969
42.6504 0 1.97886
40.4524 0 -43.213
109.175 0 -76.9891
43.0182 0 -19.992
-48.6277 0 -6.26042
-45.5444 0 27.3598
44.8818 0 16.726
-31.8644 0 -29.1593
23.9675 0 -3.32127
-19.4858 0 5.6032
-16.1074 0 2.15047
-13.725 0 -16.5388
22.7634 0 -3.55725
-1.68856 0 -26.9001
-21.7469 0 19.6563
21.6375 0 -26.0249
-1.76967 0 13.6829
4.54472 0 -2.46813
-19.7977 0 -10.0189
-8.83981 0 -30.3345
5.75023 0 -4.52996
1.39984 0 3.89159
-9.78939 0 14.8994
2.01491 0 1.74177
13.5066 0 4.51228
13.9673 0 -17.791
-73.1926 0 -4.54986
73.2089 0 -4.44492
-13.8785 0 -17.626
-13.5187 0 4.40971
-2.2531 0 1.40144
10.1278 0 15.1077
-1.37646 0 3.95237
-5.68284 0 -4.55571
10.0524 0 -30.5532
20.1199 0 -10.0182
-4.62727 0 -2.57825
1.90504 0 13.6046
-21.2279 0 -25.5222
21.383 0 19.2594
1.58783 0 -26.8852
-22.7603 0 -3.56359
13.8657 0 -16.8415
16.0673 0 2.14159
19.535 0 5.57362
-24.0995 0 -3.04928
31.9678 0 -29.1954
-44.8737 0 16.7167
45.547 0 27.3583
48.6232 0 -6.2565
-43.0146 0 -19.999
-109.169 0 -76.9806
-40.4526 0 -43.2126
-42.6512 0 1.97849
-60.0223 0 6.67044
11.6244 0 33.9906
17.7156 0 -84.2591
22.5637 0 62.8559
-21.3788 0 -3.50133
-0.363349 0 22.9307
-46.7714 0 16.4829
-124.573 0 70.729
31.0893 0 -4.11553
-2.3819 0 -8.94927
-19.7639 0 -6.93862
26.0292 0 -12.6672
4.4483 0 3.28721
16.0048 0 19.6678
-23.5549 0 7.09397
-10.6231 0 -41.3056
29.6209 0 52.4079
17.2133 0 -31.4873
18.6094 0 -0.230788
4.93392 0 18.4759
8.19245 0 -4.89639
-24.7812 0 -50.2045
-63.0209 0 6.98752
31.0921 0 5.80157
23.0466 0 13.5607
29.0123 0 119.391
-17.3355 0 -116.349
-43.4766 0 -53.3961
30.2458 0 46.1724
-35.1049 0 -56.2109
-7.0364 0 14.4777
-1.88396 0 -10.1229
-28.1969 0 -99.0846
28.1599 0 -99.0984
3.51881 0 -7.52322
6.83427 0 14.5873
34.6972 0 -55.9498
-30.0523 0 45.9336
41.7574 0 -51.8116
18.0168 0 -114.929
-29.7294 0 119.972
-23.3785 0 13.832
-30.6443 0 6.28643
61.7603 0 7.43336
24.4657 0 -50.5944
-8.37039 0 -5.08952
-4.95891 0 18.7375
-18.7639 0 -0.401811
-16.9161 0 -32.5258
-30.0247 0 53.6166
10.5947 0 -41.3029
23.4221 0 6.95435
-16.027 0 19.6761
-4.43248 0 3.32539
-26.0323 0 -12.6522
19.7494 0 -6.93793
2.37868 0 -8.93655
-31.0942 0 -4.1108
124.567 0 70.7253
46.7718 0 16.4827
0.362397 0 22.9318
21.3784 0 -3.50138
-22.5637 0 62.8569
6.61384 0 10.8896
-11.4089 0 -49.9155
-23.6208 0 -9.57614
-48.0768 0 22.4176
-6.12025 0 19.375
-11.7493 0 -2.50077
18.7322 0 49.595
-9.90927 0 0.795611
-2.47085 0 3.15245
0.57578 0 14.6354
-20.9536 0 12.533
19.7092 0 58.8429
-24.4082 0 37.1939
-17.2733 0 -7.58184
-8.90053 0 34.8886
-113.234 0 2.20463
-13.6573 0 -34.3357
-23.9871 0 62.8465
-27.1469 0 -71.4594
80.8276 0 3.84275
-0.331081 0 5.42107
17.2255 0 -72.809
30.5488 0 40.3311
16.7825 0 -34.5278
8.74268 0 -20.797
-116.729 0 6.94494
130.095 0 3.08645
-38.2792 0 29.1321
-15.7918 0 18.3024
23.8691 0 84.6291
-23.8493 0 84.6366
13.9327 0 15.7512
38.8028 0 29.9327
-130.057 0 1.73104
117.668 0 6.56783
-9.62516 0 -21.9814
-15.4854 0 -29.6489
-31.0972 0 38.779
-17.1435 0 -73.2769
0.255549 0 5.45043
-80.6238 0 2.77091
27.6031 0 -71.1472
24.11 0 63.2985
13.0971 0 -34.2336
114.128 0 2.61372
8.98928 0 35.298
16.9226 0 -7.86605
24.3674 0 37.2117
-19.4233 0 58.6808
20.9153 0 12.511
-0.566021 0 14.6385
2.45206 0 3.06683
9.91273 0 0.794811
-18.7367 0 49.5894
11.7572 0 -2.50999
6.12166 0 19.3782
48.0768 0 22.4158
23.6226 0 -9.57743
11.4083 0 -49.916
-6.61351 0 10.8897
20.4528 0 -12.4903
-11.9466 0 34.2707
19.9456 0 -9.6932
37.1123 0 26.9573
-12.0761 0 -2.04219
17.2181 0 2.43412
0.0639799 0 -14.2462
-0.495842 0 -3.07206
-30.238 0 -105.211
-33.5828 0 0.752115
-0.820801 0 7.24987
23.0902 0 -19.1066
-37.6308 0 5.82035
47.3661 0 -22.2432
-6.01063 0 10.4886
10.0335 0 -26.1242
114.296 0 24.5242
-7.3929 0 -4.76176
43.322 0 86.8179
-7.59781 0 14.898
-19.8197 0 14.3222
11.6161 0 26.1709
3.49059 0 -22.6924
13.0345 0 1.86587
36.5581 0 122.626
14.7176 0 38.0172
-0.217308 0 -13.7159
15.603 0 40.9328
4.96944 0 -0.264899
7.78608 0 -27.6938
-7.80151 0 -28.6074
-5.1666 0 -0.0513363
-16.3828 0 42.2947
1.38297 0 -13.0434
-14.4971 0 35.7216
-36.6582 0 120.996
-13.2745 0 1.79448
-3.66666 0 -24.6895
-11.7429 0 25.7869
19.9111 0 14.302
7.53211 0 14.7789
-42.9268 0 86.5331
7.53664 0 -5.76215
-114.744 0 25.0064
-9.50937 0 -25.9687
6.00407 0 10.4891
-47.3676 0 -22.2161
38.0928 0 5.7276
-23.1078 0 -19.1063
0.855441 0 7.27879
33.6042 0 0.79196
30.2108 0 -105.25
0.488653 0 -3.08638
-0.0657859 0 -14.2523
-17.2209 0 2.44431
12.0791 0 -2.03976
-37.1142 0 26.958
-19.9456 0 -9.69272
11.9465 0 34.2712
-20.4519 0 -12.4875
-5.81057 0 -4.25596
11.268 0 7.54611
16.8489 0 -7.12214
-11.2553 0 3.34004
3.4424 0 -8.07417
-9.48865 0 -3.73538
77.4037 0 -56.398
-0.122979 0 -0.337569
42.3858 0 108.396
7.53351 0 -9.82037
-56.2582 0 1.08329
27.1972 0 0.694881
-4.03211 0 -23.8025
-12.9943 0 -3.42267
13.9897 0 -3.32454
7.26534 0 -10.8422
3.472 0 3.21253
16.634 0 -17.8763
-15.0903 0 -3.78882
-16.8844 0 9.38912
19.6181 0 -32.3802
-9.44731 0 92.7676
-0.247221 0 -23.5348
-4.6122 0 10.2652
-6.08544 0 18.5668
-9.87504 0 -5.33591
-17.1628 0 1.63079
-4.62706 0 -5.43358
13.7586 0 -38.8383
7.42131 0 -9.88066
-9.37635 0 -11.1216
3.97168 0 -58.9939
4.56738 0 -5.6384
16.1731 0 1.86749
9.70987 0 -5.09804
5.70003 0 17.1856
4.70669 0 9.77979
0.0313002 0 -23.709
8.94305 0 93.1298
-19.3604 0 -32.5595
16.6876 0 9.46092
14.917 0 -3.72215
-16.7041 0 -18.117
-3.36521 0 3.26895
-7.14898 0 -10.8913
-14.009 0 -3.32519
13.0021 0 -3.41659
4.04622 0 -23.7893
-27.2163 0 0.711994
56.2882 0 1.05836
-7.56501 0 -9.86968
-42.3791 0 108.413
0.210318 0 -0.234469
-77.4605 0 -56.438
9.52009 0 -3.75217
-3.44229 0 -8.07377
11.2546 0 3.33822
-16.8471 0 -7.12098
-11.277 0 7.54865
5.81098 0 -4.25971
19.9553 0 -1.70673
5.9787 0 -2.87052
-22.2729 0 20.9318
10.9297 0 46.93
-17.762 0 -61.1499
11.4831 0 34.2537
-35.7743 0 65.3358
-23.0147 0 -23.3551
15.9096 0 -19.3229
-8.8332 0 3.33884
-5.64464 0 -19.8556
-19.7951 0 -0.198718
50.2424 0 -4.00255
15.7482 0 1.01323
-17.6602 0 4.77847
35.8284 0 28.9011
7.47957 0 3.23555
-25.9086 0 35.3336
-28.9916 0 36.2332
22.5793 0 -43.4533
-11.245 0 4.25793
19.9787 0 -22.5972
5.621 0 -0.0613134
-2.86622 0 -2.28843
-40.8948 0 3.59033
53.3341 0 -2.6193
-3.17395 0 -21.6179
7.99231 0 2.77828
15.8472 0 70.5209
0.862108 0 -41.021
0.394254 0 -41.7352
-28.9459 0 94.3324
-10.622 0 -1.07542
4.67857 0 -22.4285
-52.597 0 -2.56334
39.4727 0 -0.12556
2.56528 0 -2.0663
-4.74559 0 3.64624
-19.8434 0 -21.9856
11.2044 0 4.35895
-22.5456 0 -43.759
29.1644 0 36.2647
24.9352 0 35.7811
-7.75071 0 3.51805
-36.2926 0 28.7882
17.6874 0 4.72088
-15.6792 0 1.02106
-50.274 0 -3.95734
19.7339 0 -0.182769
5.62194 0 -19.9401
8.86018 0 3.38058
-15.9905 0 -19.3766
23.0279 0 -23.4867
35.7988 0 65.3635
-11.4877 0 34.2545
17.7752 0 -61.1252
-10.8932 0 46.8865
22.2335 0 20.9504
-5.97939 0 -2.86893
-19.9553 0 -1.7066
13.2998 0 7.02664
-31.5939 0 -44.6114
-14.4597 0 -18.6033
4.57033 0 -13.0838
-34.4738 0 -23.1328
-32.4783 0 45.808
36.2501 0 -30.173
27.7428 0 -23.5414
12.3714 0 22.7164
10.6321 0 15.9103
1.93309 0 1.39254
-10.5864 0 26.9414
-23.0095 0 -13.8074
26.432 0 -7.98229
-12.024 0 8.49573
3.98806 0 -24.2109
-31.2639 0 28.4605
44.8564 0 -57.7739
17.5966 0 4.1924
-17.9092 0 2.94466
15.99 0 -7.25366
-11.0721 0 13.4006
-13.7203 0 13.1291
-6.06889 0 -14.4536
5.76864 0 7.07697
-44.627 0 -2.01499
11.9789 0 9.0339
-9.71105 0 -7.162
-5.9597 0 -3.70533
-37.5281 0 17.7045
35.338 0 16.8557
2.82704 0 0.0691072
10.7838 0 -6.71694
-14.1127 0 10.2964
43.9841 0 3.04986
-4.92379 0 7.55169
6.09947 0 -14.8425
13.7552 0 13.4887
10.9762 0 12.2303
-15.8939 0 -7.56243
18.539 0 2.39609
-16.0621 0 3.23867
-43.9873 0 -57.4899
30.7362 0 27.7408
-3.99115 0 -23.9962
12.0266 0 8.50404
-26.3718 0 -7.99429
22.9356 0 -13.853
10.5965 0 27.0609
-1.92972 0 1.37787
-10.5755 0 15.8309
-12.4338 0 22.9092
-27.8138 0 -23.6052
-36.2534 0 -30.1679
32.4966 0 45.8183
34.4837 0 -23.1433
-4.55922 0 -13.0868
14.4572 0 -18.5961
31.5967 0 -44.6146
-13.3001 0 7.0253
-2.67203 0 -37.3031
-6.78805 0 25.5045
43.7907 0 23.7061
9.51971 0 12.7797
-1.72729 0 17.2272
-24.1975 0 -24.4768
7.73346 0 4.17509
-6.63622 0 41.1502
17.4473 0 -6.96903
1.5858 0 6.4543
11.5188 0 -10.8467
5.44434 0 -47.5134
-24.4037 0 -19.6713
30.0025 0 23.2945
-5.04603 0 3.32538
9.18979 0 97.295
33.1269 0 -13.5991
-10.9846 0 -83.364
-18.6944 0 4.00738
-58.1838 0 -45.5934
23.0022 0 2.11478
11.9373 0 -1.82948
-12.1493 0 1.37821
-7.12526 0 15.8082
-33.6046 0 -15.4563
-24.6606 0 -22.4645
9.1764 0 5.10323
15.4739 0 -1.01001
2.20976 0 72.2716
36.9412 0 -47.9592
-35.3345 0 -41.3266
-3.71351 0 62.166
-14.1091 0 -1.94419
-9.64192 0 4.36046
26.332 0 -22.3025
34.4223 0 -18.0444
6.34903 0 15.1092
11.9504 0 1.06963
-10.9083 0 -2.34974
-24.2032 0 3.3161
58.1747 0 -44.2716
19.0482 0 3.95483
10.7318 0 -83.5333
-33.0048 0 -13.6365
-9.41402 0 97.338
4.98205 0 3.36842
-30.079 0 23.297
24.5405 0 -19.6783
-5.64929 0 -47.8016
-11.443 0 -11.0921
-1.5689 0 6.45284
-17.4253 0 -6.97025
6.6405 0 41.1336
-7.73508 0 4.18176
24.26 0 -24.3959
1.7308 0 17.225
-9.52151 0 12.7804
-43.7937 0 23.7081
6.79277 0 25.4988
2.66865 0 -37.2963
6.83655 0 -45.0432
-12.4627 0 3.21159
20.5939 0 9.74006
11.4797 0 10.6548
2.38496 0 -0.343695
0.676208 0 19.7036
-55.2923 0 -45.967
-8.30174 0 4.21572
-25.4986 0 11.1698
-112.296 0 30.5725
0.231566 0 -57.0799
32.9636 0 -43.3945
18.2742 0 10.8733
2.78819 0 -0.660994
-40.6901 0 -26.572
5.36815 0 12.7304
-24.596 0 8.33231
0.705697 0 8.00468
-19.2442 0 6.9628
-8.70541 0 26.812
50.1658 0 -11.1312
-66.7055 0 43.7656
-0.420778 0 -72.3009
4.11999 0 10.458
0.337775 0 -0.228927
54.3109 0 -5.381
35.1359 0 -11.814
-27.7957 0 -12.5517
18.8618 0 -113.413
-34.5834 0 -5.45684
35.241 0 -5.67193
-14.3301 0 -102.181
27.74 0 -12.2993
-36.3384 0 -12.1726
-55.0474 0 -4.88563
-1.03468 0 0.750231
-4.13107 0 10.2425
-0.0884933 0 -72.5441
65.5772 0 44.4155
-49.5786 0 -10.2186
7.54733 0 25.6927
19.6774 0 7.16386
-1.03664 0 7.74208
24.5024 0 8.29735
-5.34486 0 12.7983
40.767 0 -26.7484
-2.80365 0 -0.651425
-18.271 0 10.9031
-32.6335 0 -43.8299
-0.128186 0 -56.258
111.935 0 30.5654
25.508 0 11.156
8.30709 0 4.22307
55.2955 0 -45.9766
-0.680678 0 19.7005
-2.37913 0 -0.341507
-11.4794 0 10.6548
-20.5868 0 9.73947
12.4615 0 3.20893
-6.83754 0 -45.0403
21.3095 0 14.7372
-17.3966 0 -13.5544
65.4297 0 20.439
7.37381 0 -2.19154
-27.123 0 -1.97293
35.2391 0 -12.2737
12.3792 0 -11.0476
5.02324 0 35.0008
-19.8512 0 -24.8821
1.51679 0 -9.09953
54.4626 0 -17.0372
35.6602 0 -20.5885
9.92849 0 92.9617
1.77794 0 5.20488
-3.20448 0 -0.826605
-15.4244 0 69.0788
-10.3804 0 -62.82
2.96538 0 -14.9
-4.26533 0 -14.5496
20.5918 0 -2.04134
8.96891 0 24.5612
2.48385 0 -3.18463
58.2604 0 70.648
-24.0974 0 18.415
16.5522 0 -17.9763
-24.6364 0 12.0873
-25.0142 0 1.73412
9.85263 0 -25.2799
-17.4302 0 -6.07349
-7.06888 0 8.07978
6.7704 0 7.90135
18.6591 0 -6.57346
-10.561 0 -25.5548
25.4967 0 1.70063
24.8075 0 14.6788
-17.4653 0 -17.5584
24.4154 0 18.4722
-56.8683 0 69.9119
-2.37741 0 -3.64517
-8.30861 0 24.0993
-22.879 0 -1.3069
6.50317 0 -15.1338
-2.95901 0 -14.9325
10.357 0 -62.8578
15.4419 0 69.3265
3.47599 0 -0.826183
-1.9844 0 5.09372
-10.2017 0 93.4642
-35.4823 0 -20.8199
-54.3035 0 -17.1299
-1.76012 0 -8.97034
19.7945 0 -24.8012
-5.09679 0 35.0528
-12.3689 0 -11.0285
-35.2403 0 -12.2748
27.1196 0 -1.97346
-7.37425 0 -2.19044
-65.4413 0 20.4394
17.3947 0 -13.5501
-21.3097 0 14.7363
7.27314 0 42.1802
-78.8149 0 -27.885
-27.0086 0 9.13897
22.4431 0 -0.485241
-1.71062 0 8.44467
11.438 0 7.4517
6.9055 0 4.1069
-0.380824 0 -6.59202
2.71651 0 2.03523
30.22 0 23.9178
-4.42881 0 -11.1766
-133.206 0 -12.6722
149.396 0 57.6348
3.37143 0 5.72373
-3.06458 0 -1.14922
-2.87048 0 1.33623
-17.2934 0 -1.95294
38.987 0 10.314
2.61603 0 -1.72191
5.79902 0 -4.76539
4.92105 0 6.22824
6.83075 0 -16.8458
41.0029 0 -6.94333
4.27962 0 2.08867
17.0045 0 -17.606
-10.1237 0 1.67262
7.7969 0 13.6927
-14.5638 0 38.8185
-23.4796 0 127.039
-6.32619 0 -25.2516
2.53128 0 -17.086
20.8253 0 118.707
15.665 0 39.7255
-8.29227 0 13.8693
10.4239 0 1.68818
-17.3656 0 -17.8396
-4.42644 0 2.06797
-41.4162 0 -6.79258
-6.51885 0 -16.3793
-5.33263 0 6.10751
-5.905 0 -4.84596
-2.24155 0 -1.41536
-39.0961 0 10.3614
17.3582 0 -2.11702
2.68892 0 1.39969
3.0839 0 -1.21015
-3.40634 0 5.68833
-149.718 0 57.963
133.765 0 -13.1065
4.37729 0 -11.2756
-30.148 0 23.8608
-2.70854 0 2.04122
0.385992 0 -6.58821
-6.90431 0 4.09773
-11.4511 0 7.44544
1.70474 0 8.45055
-22.4452 0 -0.481481
26.9906 0 9.15679
78.8268 0 -27.8871
-7.27175 0 42.1759
8.52292 0 -5.51859
-19.0137 0 -27.2316
20.8493 0 29.7523
-23.3769 0 21.4013
8.59182 0 -6.44197
22.1122 0 2.22338
-16.3608 0 -4.47452
10.6468 0 -4.8834
-69.6626 0 -2.86286
-54.2008 0 14.3885
-24.7404 0 -51.4283
1.0318 0 3.0631
-10.3729 0 12.1511
-14.2402 0 -19.7836
-4.96669 0 -8.10255
11.3948 0 -4.75856
7.48798 0 0.376052
-16.755 0 50.8965
-69.5995 0 -26.9306
-9.41602 0 1.33269
-10.5637 0 11.6334
3.97229 0 3.53948
-27.4191 0 21.8784
-12.2663 0 -10.0774
-4.52248 0 -3.15332
5.33144 0 1.29912
-11.0559 0 0.82389
-6.516 0 -0.498955
-46.6426 0 119.929
23.939 0 -130.054
-11.4451 0 -97.4339
34.6264 0 89.066
6.33744 0 -0.276026
10.8281 0 0.89015
-5.42558 0 1.42058
4.59443 0 -3.06749
12.4097 0 -9.59171
27.9803 0 21.3749
-4.09793 0 3.60505
10.9 0 11.3277
10.2362 0 1.53001
73.9982 0 -24.9841
15.7582 0 49.3214
-7.20464 0 0.627816
-11.8054 0 -4.37896
4.80785 0 -8.05594
14.2179 0 -19.6156
10.3447 0 12.2691
-1.00537 0 3.04909
25.0162 0 -51.7663
54.2478 0 14.4669
69.0449 0 -2.68301
-10.701 0 -4.90839
16.3667 0 -4.49193
-22.102 0 2.22634
-8.61213 0 -6.43953
23.3914 0 21.3758
-20.8434 0 29.7471
19.0084 0 -27.2245
-8.52055 0 -5.52393
-3.48315 0 -2.45464
13.7272 0 -3.35242
18.8171 0 2.61612
-2.09309 0 2.69736
10.1924 0 -7.75493
-38.2727 0 20.7896
54.6727 0 -32.223
9.20021 0 5.37423
-79.3272 0 -36.8132
41.0471 0 -34.0883
93.0283 0 34.1998
54.1059 0 57.3595
-1.01645 0 -0.888583
10.5337 0 -1.84145
-13.5996 0 -11.5804
-5.02183 0 23.5312
9.51748 0 -14.8628
-0.344362 0 -10.2503
-9.59815 0 -9.73654
63.744 0 -22.6952
-3.05486 0 -2.05314
-1.06693 0 24.2401
22.7016 0 -9.2476
-13.5901 0 -10.2168
-28.9892 0 2.76547
34.9674 0 -12.8942
1.07467 0 -11.5969
9.39463 0 19.3063
30.7939 0 13.888
10.7787 0 25.1545
-8.26491 0 15.7906
-29.2511 0 11.9848
-9.40547 0 19.5125
-0.913882 0 -11.7419
-35.1469 0 -13.0274
29.013 0 2.56106
13.4214 0 -10.3577
-22.896 0 -8.83315
1.42232 0 24.316
3.20425 0 -2.27842
-70.4172 0 -22.0782
9.30909 0 -9.3824
0.909754 0 -10.9835
-9.49317 0 -14.8916
5.27106 0 23.0769
13.6571 0 -10.2291
-10.5191 0 -1.86168
0.762256 0 -0.675947
-54.3604 0 57.6437