# vtk DataFile Version 3.0
SiWiRVisFile
ASCII
DATASET UNSTRUCTURED_GRID
POINTS 1600 DOUBLE
79.1915 100 76.2312
80.2888 100 76.4121
81.4086 100 76.3646
82.528 100 76.3619
83.6481 100 76.3571
84.7669 100 76.3533
85.8805 100 76.35
86.9929 100 76.3477
88.1113 100 76.3467
89.2344 100 76.3464
90.3579 100 76.3463
91.4806 100 76.3463
92.6031 100 76.3463
93.7256 100 76.3463
94.848 100 76.3463
95.9705 100 76.3463
97.093 100 76.3463
98.2154 100 76.3463
99.3379 100 76.3463
100.46 100 76.3463
101.583 100 76.3463
102.705 100 76.3463
103.828 100 76.3463
104.95 100 76.3463
106.073 100 76.3463
107.195 100 76.3463
108.318 100 76.3463
109.44 100 76.3463
110.563 100 76.3463
111.685 100 76.3463
112.807 100 76.3463
113.93 100 76.3463
115.052 100 76.3463
116.175 100 76.3463
117.297 100 76.3463
118.42 100 76.3463
119.542 100 76.3463
120.665 100 76.3463
121.787 100 76.3463
122.91 100 76.3463
124.032 100 76.3463
125.155 100 76.3463
126.277 100 76.3463
127.399 100 76.3463
128.522 100 76.3463
129.644 100 76.3463
130.767 100 76.3463
131.889 100 76.3463
133.012 100 76.3463
134.135 100 76.3463
135.258 100 76.3464
136.381 100 76.3467
137.499 100 76.3477
138.612 100 76.35
139.726 100 76.3533
140.844 100 76.3571
141.964 100 76.3619
143.084 100 76.3646
144.204 100 76.4121
145.301 100 76.2312
79.3724 100 77.3285
80.4605 100 77.5002
81.5566 100 77.4558
82.6513 100 77.4569
83.7407 100 77.4543
84.8327 100 77.4519
85.925 100 77.4502
87.0106 100 77.4489
88.1127 100 77.4483
89.2335 100 77.4484
90.3571 100 77.4483
91.4801 100 77.4483
92.6027 100 77.4483
93.7252 100 77.4483
94.848 100 77.4481
95.9705 100 77.4481
97.093 100 77.4481
98.2154 100 77.4481
99.3379 100 77.4481
100.46 100 77.4481
101.583 100 77.4481
102.705 100 77.4481
103.828 100 77.4481
104.95 100 77.4481
106.073 100 77.4481
107.195 100 77.4481
108.318 100 77.4481
109.44 100 77.4481
110.563 100 77.4481
111.685 100 77.4481
112.807 100 77.4481
113.93 100 77.4481
115.052 100 77.4481
116.175 100 77.4481
117.297 100 77.4481
118.42 100 77.4481
119.542 100 77.4481
120.665 100 77.4481
121.787 100 77.4481
122.91 100 77.4481
124.032 100 77.4481
125.155 100 77.4481
126.277 100 77.4481
127.399 100 77.4481
128.522 100 77.4481
129.644 100 77.4481
130.767 100 77.4483
131.89 100 77.4483
133.012 100 77.4483
134.135 100 77.4483
135.259 100 77.4484
136.38 100 77.4483
137.482 100 77.4489
138.567 100 77.4502
139.66 100 77.4519
140.752 100 77.4543
141.841 100 77.4569
142.936 100 77.4558
144.032 100 77.5002
145.12 100 77.3285
79.3249 100 78.4483
80.4162 100 78.5963
81.5145 100 78.5541
82.6149 100 78.5548
83.7121 100 78.5519
84.8145 100 78.5497
85.9142 100 78.5488
87.0083 100 78.5484
88.1167 100 78.5486
89.2376 100 78.5487
90.3605 100 78.5485
91.4819 100 78.5485
92.6035 100 78.5487
93.7257 100 78.5487
94.8481 100 78.5487
95.9705 100 78.5487
97.093 100 78.5487
98.2154 100 78.5487
99.3379 100 78.5487
100.46 100 78.5487
101.583 100 78.5487
102.705 100 78.5487
103.828 100 78.5487
104.95 100 78.5487
106.073 100 78.5487
107.195 100 78.5487
108.318 100 78.5487
109.44 100 78.5487
110.563 100 78.5487
111.685 100 78.5487
112.807 100 78.5487
113.93 100 78.5487
115.052 100 78.5487
116.175 100 78.5487
117.297 100 78.5487
118.42 100 78.5487
119.542 100 78.5487
120.665 100 78.5487
121.787 100 78.5487
122.91 100 78.5487
124.032 100 78.5487
125.155 100 78.5487
126.277 100 78.5487
127.399 100 78.5487
128.522 100 78.5487
129.644 100 78.5487
130.767 100 78.5487
131.889 100 78.5487
133.01 100 78.5485
134.132 100 78.5485
135.255 100 78.5487
136.376 100 78.5486
137.484 100 78.5484
138.578 100 78.5488
139.678 100 78.5497
140.78 100 78.5519
141.878 100 78.5548
142.978 100 78.5541
144.076 100 78.5963
145.167 100 78.4483
79.3223 100 79.5676
80.4172 100 79.6909
81.5151 100 79.6545
82.6148 100 79.6545
83.7113 100 79.6515
84.8133 100 79.6496
85.9122 100 79.6489
87.0055 100 79.6489
88.1137 100 79.649
89.2345 100 79.649
90.3576 100 79.6486
91.4803 100 79.6485
92.6029 100 79.6486
93.7255 100 79.6486
94.848 100 79.6486
95.9705 100 79.6486
97.093 100 79.6486
98.2154 100 79.6486
99.3379 100 79.6486
100.46 100 79.6486
101.583 100 79.6486
102.705 100 79.6486
103.828 100 79.6486
104.95 100 79.6486
106.073 100 79.6486
107.195 100 79.6486
108.318 100 79.6486
109.44 100 79.6486
110.563 100 79.6486
111.685 100 79.6486
112.807 100 79.6486
113.93 100 79.6486
115.052 100 79.6486
116.175 100 79.6486
117.297 100 79.6486
118.42 100 79.6486
119.542 100 79.6486
120.665 100 79.6486
121.787 100 79.6486
122.91 100 79.6486
124.032 100 79.6486
125.155 100 79.6486
126.277 100 79.6486
127.399 100 79.6486
128.522 100 79.6486
129.644 100 79.6486
130.767 100 79.6486
131.889 100 79.6486
133.012 100 79.6485
134.135 100 79.6486
135.258 100 79.649
136.379 100 79.649
137.487 100 79.6489
138.58 100 79.6489
139.679 100 79.6496
140.781 100 79.6515
141.878 100 79.6545
142.977 100 79.6545
144.075 100 79.6909
145.17 100 79.5676
79.3175 100 80.6877
80.4147 100 80.7804
81.5123 100 80.7518
82.6118 100 80.7509
83.709 100 80.7487
84.8123 100 80.7473
85.9117 100 80.747
87.0056 100 80.7471
88.1148 100 80.7472
89.2353 100 80.7473
90.3582 100 80.7472
91.4807 100 80.7472
92.6032 100 80.7472
93.7256 100 80.7472
94.8481 100 80.7472
95.9705 100 80.7472
97.093 100 80.7472
98.2154 100 80.7472
99.3379 100 80.7472
100.46 100 80.7472
101.583 100 80.7472
102.705 100 80.7472
103.828 100 80.7472
104.95 100 80.7472
106.073 100 80.7472
107.195 100 80.7472
108.318 100 80.7472
109.44 100 80.7472
110.563 100 80.7472
111.685 100 80.7472
112.807 100 80.7472
113.93 100 80.7472
115.052 100 80.7472
116.175 100 80.7472
117.297 100 80.7472
118.42 100 80.7472
119.542 100 80.7472
120.665 100 80.7472
121.787 100 80.7472
122.91 100 80.7472
124.032 100 80.7472
125.155 100 80.7472
126.277 100 80.7472
127.399 100 80.7472
128.522 100 80.7472
129.644 100 80.7472
130.767 100 80.7472
131.889 100 80.7472
133.012 100 80.7472
134.134 100 80.7472
135.257 100 80.7473
136.378 100 80.7472
137.487 100 80.7471
138.581 100 80.747
139.68 100 80.7473
140.783 100 80.7487
141.881 100 80.7509
142.98 100 80.7518
144.078 100 80.7804
145.175 100 80.6877
79.3136 100 81.8065
80.4122 100 81.8724
81.5101 100 81.8542
82.6099 100 81.8529
83.7076 100 81.8519
84.8111 100 81.8508
85.9106 100 81.8505
87.0048 100 81.8505
88.1149 100 81.8505
89.2356 100 81.8506
90.3582 100 81.8506
91.4807 100 81.8506
92.6031 100 81.8506
93.7256 100 81.8506
94.848 100 81.8506
95.9705 100 81.8506
97.093 100 81.8506
98.2154 100 81.8506
99.3379 100 81.8506
100.46 100 81.8506
101.583 100 81.8506
102.705 100 81.8506
103.828 100 81.8506
104.95 100 81.8506
106.073 100 81.8506
107.195 100 81.8506
108.318 100 81.8506
109.44 100 81.8506
110.563 100 81.8506
111.685 100 81.8506
112.807 100 81.8506
113.93 100 81.8506
115.052 100 81.8506
116.175 100 81.8506
117.297 100 81.8506
118.42 100 81.8506
119.542 100 81.8506
120.665 100 81.8506
121.787 100 81.8506
122.91 100 81.8506
124.032 100 81.8506
125.155 100 81.8506
126.277 100 81.8506
127.399 100 81.8506
128.522 100 81.8506
129.644 100 81.8506
130.767 100 81.8506
131.889 100 81.8506
133.012 100 81.8506
134.134 100 81.8506
135.257 100 81.8506
136.377 100 81.8505
137.488 100 81.8505
138.582 100 81.8505
139.681 100 81.8508
140.785 100 81.8519
141.882 100 81.8529
142.982 100 81.8542
144.08 100 81.8724
145.179 100 81.8065
79.3104 100 82.9201
80.4105 100 82.9647
81.5091 100 82.9538
82.6093 100 82.9519
83.7073 100 82.9513
84.8108 100 82.9503
85.91 100 82.9496
87.0039 100 82.9492
88.1147 100 82.949
89.2357 100 82.9489
90.3582 100 82.9489
91.4807 100 82.9489
92.6031 100 82.9489
93.7256 100 82.9489
94.848 100 82.9489
95.9705 100 82.9489
97.093 100 82.9489
98.2154 100 82.9489
99.3379 100 82.9489
100.46 100 82.9489
101.583 100 82.9489
102.705 100 82.9489
103.828 100 82.9489
104.95 100 82.9489
106.073 100 82.9489
107.195 100 82.9489
108.318 100 82.9489
109.44 100 82.9489
110.563 100 82.9489
111.685 100 82.9489
112.807 100 82.9489
113.93 100 82.9489
115.052 100 82.9489
116.175 100 82.9489
117.297 100 82.9489
118.42 100 82.9489
119.542 100 82.9489
120.665 100 82.9489
121.787 100 82.9489
122.91 100 82.9489
124.032 100 82.9489
125.155 100 82.9489
126.277 100 82.9489
127.399 100 82.9489
128.522 100 82.9489
129.644 100 82.9489
130.767 100 82.9489
131.889 100 82.9489
133.012 100 82.9489
134.134 100 82.9489
135.257 100 82.9489
136.378 100 82.949
137.489 100 82.9492
138.582 100 82.9496
139.682 100 82.9503
140.785 100 82.9513
141.883 100 82.9519
142.983 100 82.9538
144.082 100 82.9647
145.182 100 82.9201
79.308 100 84.0326
80.4093 100 84.0504
81.5087 100 84.0478
82.6092 100 84.0454
83.7075 100 84.0452
84.8108 100 84.0444
85.9096 100 84.0435
87.0034 100 84.0431
88.1145 100 84.0429
89.2358 100 84.0429
90.3582 100 84.0429
91.4807 100 84.0429
92.6031 100 84.0429
93.7256 100 84.0429
94.848 100 84.0429
95.9705 100 84.0429
97.093 100 84.0429
98.2154 100 84.0429
99.3379 100 84.0429
100.46 100 84.0429
101.583 100 84.0429
102.705 100 84.0429
103.828 100 84.0429
104.95 100 84.0429
106.073 100 84.0429
107.195 100 84.0429
108.318 100 84.0429
109.44 100 84.0429
110.563 100 84.0429
111.685 100 84.0429
112.807 100 84.0429
113.93 100 84.0429
115.052 100 84.0429
116.175 100 84.0429
117.297 100 84.0429
118.42 100 84.0429
119.542 100 84.0429
120.665 100 84.0429
121.787 100 84.0429
122.91 100 84.0429
124.032 100 84.0429
125.155 100 84.0429
126.277 100 84.0429
127.399 100 84.0429
128.522 100 84.0429
129.644 100 84.0429
130.767 100 84.0429
131.889 100 84.0429
133.012 100 84.0429
134.134 100 84.0429
135.257 100 84.0429
136.378 100 84.0429
137.489 100 84.0431
138.583 100 84.0435
139.682 100 84.0444
140.785 100 84.0452
141.883 100 84.0454
142.984 100 84.0478
144.083 100 84.0504
145.184 100 84.0326
79.3071 100 85.151
80.4087 100 85.1527
81.509 100 85.1555
82.6092 100 85.1541
83.7075 100 85.1544
84.8109 100 85.1546
85.9094 100 85.1543
87.0033 100 85.1542
88.1146 100 85.1542
89.2359 100 85.1543
90.3582 100 85.1543
91.4807 100 85.1543
92.6031 100 85.1543
93.7256 100 85.1543
94.848 100 85.1543
95.9705 100 85.1543
97.093 100 85.1543
98.2154 100 85.1543
99.3379 100 85.1543
100.46 100 85.1543
[...]
POINT_DATA 1600
SCALARS mass double
LOOKUP_TABLE default
1
1
1
1
1
1
1
1
1
1
1
1
1
1
1
1
1
1
1
1
1
1
1
1
1
1
1
1
1
1
1
1
1
1
1
1
1
1
1
1
1
1
1
1
1
1
1
1
1
1
1
1
1
1
1
1
1
1
1
1
1
1
1
1
1
1
1
1
1
1
1
1
1
1
1
1
1
1
1
1
1
1
1
1
1
1
1
1
1
1
1
1
1
1
1
1
1
1
1
1
1
1
1
1
1
1
1
1
1
1
1
1
1
1
1
1
1
1
1
1
1
1
1
1
1
1
1
1
1
1
1
1
1
1
1
1
1
1
1
1
1
1
1
1
1
1
1
1
1
1
1
1
1
1
1
1
1
1
1
1
1
1
1
1
1
1
1
1
1
1
1
1
1
1
1
1
1
1
1
1
1
1
1
1
1
1
1
1
1
1
1
1
1
1
1
1
1
1
1
1
1
1
1
1
1
1
1
1
1
1
1
1
1
1
1
1
1
1
1
1
1
1
1
1
1
1
1
1
1
1
1
1
1
1
1
1
1
1
1
1
1
1
1
1
1
1
1
1
1
1
1
1
1
1
1
1
1
1
1
1
1
1
1
1
1
1
1
1
1
1
1
1
1
1
1
1
1
1
1
1
1
1
1
1
1
1
1
1
1
1
1
1
1
1
1
1
1
1
1
1
1
1
1
1
1
1
1
1
1
1
1
1
1
1
1
1
1
1
1
1
1
1
1
1
1
1
1
1
1
1
1
1
1
1
1
1
1
1
1
1
1
1
1
1
1
1
1
1
1
1
1
1
1
1
1
1
1
1
1
1
1
1
1
1
1
1
1
1
1
1
1
1
1
1
1
1
1
1
1
1
1
1
1
1
1
1
1
1
1
1
1
1
1
1
1
1
1
1
1
1
1
1
1
1
1
1
1
1
1
1
1
1
1
1
1
1
1
1
1
1
1
1
1
1
1
1
1
1
1
1
1
1
1
1
1
1
1
1
1
1
1
1
1
1
1
1
1
1
1
1
1
1
1
1
1
1
1
1
1
1
1
1
1
1
1
1
1
1
1
1
1
1
1
1
1
1
1
1
1
1
1
1
1
1
1
1
1
1
1
1
1
1
1
1
1
1
1
1
1
1
1
1
1
1
1
1
1
1
1
1
1
1
1
1
1
1
1
1
1
1
1
1
1
1
1
1
1
1
1
1
1
1
1
1
1
1
1
1
1
1
1
1
1
1
1
1
1
1
1
1
1
1
1
1
1
1
1
1
1
1
1
1
1
1
1
1
1
1
1
1
1
1
1
1
1
1
1
1
1
1
1
1
1
1
1
1
1
1
1
1
1
1
1
1
1
1
1
1
1
1
1
1
1
1
1
1
1
1
1
1
1
1
1
1
1
1
1
1
1
1
1
1
1
1
1
1
1
1
1
1
1
1
1
1
1
1
1
1
1
1
1
1
1
1
1
1
1
1
1
1
1
1
1
1
1
1
1
1
1
1
1
1
1
1
1
1
1
1
1
1
1
1
1
1
1
1
1
1
1
1
1
1
1
1
1
1
1
1
1
1
1
1
1
1
1
1
1
1
1
1
1
1
1
1
1
1
1
1
1
1
1
1
1
1
1
1
1
1
1
1
1
1
1
1
1
1
1
1
1
1
1
1
1
1
1
1
1
1
1
1
1
1
1
1
1
1
1
1
1
1
1
1
1
1
1
1
1
1
1
1
1
1
1
1
1
1
1
1
1
1
1
1
1
1
1
1
1
1
1
1
1
1
1
1
1
1
1
1
1
1
1
1
1
1
1
1
1
1
1
1
1
1
1
1
1
1
1
1
1
1
1
1
1
1
1
1
1
1
1
1
1
1
1
1
1
1
1
1
1
1
1
1
1
1
1
1
1
1
1
1
1
1
1
1
1
1
1
1
1
1
1
1
1
1
1
1
1
1
1
1
1
1
1
1
1
1
1
1
1
1
1
1
1
1
1
1
1
1
1
1
1
1
1
1
1
1
1
1
1
1
1
1
1
1
1
1
1
1
1
1
1
1
1
1
1
1
1
1
1
1
1
1
1
1
1
1
1
1
1
1
1
1
1
1
1
1
1
1
1
1
1
1
1
1
1
1
1
1
1
1
1
1
1
1
1
1
1
1
1
1
1
1
1
1
1
1
1
1
1
1
1
1
1
1
1
1
1
1
1
1
1
1
1
1
1
1
1
1
1
1
1
1
1
1
1
1
1
1
1
1
1
1
1
1
1
1
1
1
1
1
1
1
1
1
1
1
1
1
1
1
1
1
1
1
1
1
1
1
1
1
1
1
1
1
1
1
1
1
1
1
1
1
1
1
1
1
1
1
1
1
1
1
1
1
1
1
1
1
1
1
1
1
1
1
1
1
1
1
1
1
1
1
1
1
1
1
1
1
1
1
1
1
1
1
1
1
1
1
1
1
1
1
1
1
1
1
1
1
1
1
1
1
1
1
1
1
1
1
1
1
1
1
1
1
1
1
1
1
1
1
1
1
1
1
1
1
1
1
1
1
1
1
1
1
1
1
1
1
1
1
1
1
1
1
1
1
1
1
1
1
1
1
1
1
1
1
1
1
1
1
1
1
1
1
1
1
1
1
1
1
1
1
1
1
1
1
1
1
1
1
1
1
1
1
1
1
1
1
1
1
1
1
1
1
1
1
1
1
1
1
1
1
1
1
1
1
1
1
1
1
1
1
1
1
1
1
1
1
1
1
1
1
1
1
1
1
1
1
1
1
1
1
1
1
1
1
1
1
1
1
1
1
1
1
1
1
1
1
1
1
1
1
1
1
1
1
1
1
1
1
1
1
1
1
1
1
1
1
1
1
1
1
1
1
1
1
1
1
1
1
1
1
1
1
1
1
1
1
1
1
1
1
1
1
1
1
1
1
1
1
1
1
1
1
1
1
1
1
1
1
1
1
1
1
1
1
1
1
1
1
1
1
1
1
1
1
1
1
1
1
1
1
1
1
1
1
1
1
1
1
1
1
1
1
1
1
1
1
1
1
1
1
1
1
1
1
1
1
1
1
1
1
1
1
1
1
1
1
1
1
1
1
1
1
1
1
1
1
1
1
1
1
1
1
1
1
1
1
1
1
1
1
1
1
1
1
1
1
1
1
1
1
1
1
1
1
1
1
1
1
1
1
1
1
1
1
1
1
1
1
1
1
1
1
1
1
1
1
1
1
1
1
1
1
1
1
1
1
1
1
1
1
1
1
1
1
1
1
1
1
1
1
1
1
1
1
1
1
1
1
1
1
1
1
1
1
1
1
1
1
1
1
1
1
1
1
1
1
1
1
1
1
1
1
1
1
1
1
1
1
1
1
1
1
1
1
1
1
1
1
1
1
1
1
1
1
1
1
1
1
1
1
1
1
1
1
1
1
1
1
1
1
1
1
1
1
1
1
1
1
1
1
1
1
1
1
1
1
1
1
1
1
1
1
1
1
1
1
1
1
1
1
1
1
1
1
1
1
1
1
1
1
1
1
1
1
1
1
1
1
1
1
1
1
1
1
1
1
1
1
1
1
1
1
1
1
1
1
1
1
1
1
1
1
1
1
1
1
1
1
1
1
1
1
1
1
1
1
1
1
VECTORS force double
-1.95766 0 -1.95766
-3.41828 0 4.50895
-3.48963 0 0.389612
-2.65563 0 1.237
-2.64679 0 0.662158
-3.12983 0 0.319271
-1.30896 0 0.475745
1.35703 0 0.44271
1.02927 0 0.0624509
-0.0839196 0 -0.0415145
-0.193772 0 -0.143023
-0.0464183 0 -0.136646
-0.00218315 0 -0.130842
0.00557147 0 -0.132741
0.00416132 0 -0.175169
0.000943224 0 -0.17522
0.000170116 0 -0.175303
3.8892e-05 0 -0.175381
6.43932e-06 0 -0.175363
4.38041e-07 0 -0.17536
1.50174e-08 0 -0.17536
1.97057e-11 0 -0.17536
2.80664e-13 0 -0.17536
0 0 -0.17536
-1.63702e-13 0 -0.17536
3.9666e-12 0 -0.17536
-7.78255e-12 0 -0.17536
7.94653e-12 0 -0.17536
-7.94642e-12 0 -0.17536
7.78222e-12 0 -0.17536
-3.96649e-12 0 -0.17536
1.63869e-13 0 -0.17536
1.11022e-16 0 -0.17536
-1.63869e-13 0 -0.17536
3.9666e-12 0 -0.17536
-7.78255e-12 0 -0.17536
7.94653e-12 0 -0.17536
-8.22709e-12 0 -0.17536
-1.12479e-11 0 -0.17536
-1.50249e-08 0 -0.17536
-4.38032e-07 0 -0.17536
-6.43927e-06 0 -0.175363
-3.88917e-05 0 -0.175381
-0.000170116 0 -0.175303
-0.000943224 0 -0.17522
-0.00416132 0 -0.175169
-0.00557147 0 -0.132741
0.00218315 0 -0.130842
0.0464183 0 -0.136646
0.193772 0 -0.143023
0.0839196 0 -0.0415145
-1.02927 0 0.0624509
-1.35703 0 0.44271
1.30896 0 0.475745
3.12983 0 0.319271
2.64679 0 0.662158
2.65563 0 1.237
3.48963 0 0.389612
3.41828 0 4.50895
1.95766 0 -1.95766
4.50895 0 -3.41828
2.48991 0 2.48991
3.42382 0 -1.31142
1.3193 0 -0.504113
4.10522 0 -0.246429
2.2743 0 0.0120746
-2.0429 0 0.220872
8.07667 0 0.327313
5.91133 0 0.402524
0.305219 0 0.2185
-0.453845 0 0.222843
-0.313149 0 0.261247
-0.22881 0 0.31331
-0.138163 0 0.313793
-0.245259 0 0.394924
-0.0117635 0 0.314482
-0.00175135 0 0.315145
-0.000556495 0 0.315378
-8.14612e-05 0 0.315376
-4.13493e-06 0 0.315375
-1.04507e-07 0 0.315375
-2.48909e-09 0 0.315375
1.21106e-11 0 0.315375
3.34537e-16 0 0.315375
-3.04923e-13 0 0.315375
3.86274e-12 0 0.315375
-7.43244e-12 0 0.315375
7.73875e-12 0 0.315375
-7.73887e-12 0 0.315375
7.43371e-12 0 0.315375
-3.86413e-12 0 0.315375
3.0498e-13 0 0.315375
3.33067e-16 0 0.315375
-3.04699e-13 0 0.315375
3.86274e-12 0 0.315375
-7.43283e-12 0 0.315375
7.73786e-12 0 0.315375
-1.97604e-11 0 0.315375
2.47649e-09 0 0.315375
1.04538e-07 0 0.315375
4.13489e-06 0 0.315375
8.14612e-05 0 0.315376
0.000556495 0 0.315378
0.00175135 0 0.315145
0.0117635 0 0.314482
0.245259 0 0.394924
0.138163 0 0.313793
0.22881 0 0.31331
0.313149 0 0.261247
0.453845 0 0.222843
-0.305219 0 0.2185
-5.91133 0 0.402524
-8.07667 0 0.327313
2.0429 0 0.220872
-2.2743 0 0.0120746
-4.10522 0 -0.246429
-1.3193 0 -0.504113
-3.42382 0 -1.31142
-2.48991 0 2.48991
-4.50895 0 -3.41828
0.389612 0 -3.48964
-1.31142 0 3.42389
-0.683634 0 -0.683696
-2.07111 0 0.568653
1.44321 0 0.422451
-1.54013 0 0.576107
-2.70005 0 0.460571
5.68075 0 0.274546
3.95487 0 0.0372793
0.666489 0 -0.0167318
0.0912262 0 -0.0270545
0.450349 0 -0.103013
0.570559 0 -0.21414
0.235157 0 -0.138316
0.192994 0 -0.176701
0.00601183 0 -0.0939504
0.00140132 0 -0.0942859
0.000328158 0 -0.0943688
5.17559e-05 0 -0.0943763
4.26351e-06 0 -0.0943773
2.4093e-07 0 -0.0943772
1.02731e-08 0 -0.0943772
-3.54518e-11 0 -0.0943772
-3.48194e-14 0 -0.0943772
-2.79776e-14 0 -0.0943772
3.86076e-12 0 -0.0943772
-7.70539e-12 0 -0.0943772
7.7382e-12 0 -0.0943772
-7.73737e-12 0 -0.0943772
7.70578e-12 0 -0.0943772
-3.86108e-12 0 -0.0943772
2.82413e-14 0 -0.0943772
0 0 -0.0943772
-2.8158e-14 0 -0.0943772
3.86076e-12 0 -0.0943772
-7.70539e-12 0 -0.0943772
7.76929e-12 0 -0.0943772
2.78075e-11 0 -0.0943772
-1.02808e-08 0 -0.0943772
-2.40907e-07 0 -0.0943772
-4.26349e-06 0 -0.0943773
-5.17558e-05 0 -0.0943763
-0.000328158 0 -0.0943688
-0.00140132 0 -0.0942859
-0.00601183 0 -0.0939504
-0.192994 0 -0.176701
-0.235157 0 -0.138316
-0.570559 0 -0.21414
-0.450349 0 -0.103013
-0.0912262 0 -0.0270545
-0.666489 0 -0.0167318
-3.95487 0 0.0372793
-5.68075 0 0.274546
2.70005 0 0.460571
1.54013 0 0.576107
-1.44321 0 0.422451
2.07111 0 0.568653
0.683634 0 -0.683696
1.31142 0 3.42389
-0.389612 0 -3.48964
1.237 0 -2.65579
-0.504121 0 1.31986
0.568598 0 -2.07154
-1.30539 0 -1.305
2.34955 0 -1.06359
-1.30016 0 -0.963431
-2.48813 0 -0.91089
5.89366 0 -0.960433
3.67225 0 -0.900824
0.14324 0 -0.814056
-0.34815 0 -0.586074
-0.244348 0 -0.526197
-0.207039 0 -0.47704
-0.029508 0 -0.554914
-0.0117762 0 -0.561369
-0.00308776 0 -0.56325
-0.000549797 0 -0.563712
-0.000192604 0 -0.563832
-5.60684e-05 0 -0.563832
-6.50227e-06 0 -0.563831
-3.23034e-07 0 -0.563831
-8.28544e-09 0 -0.563831
2.39058e-11 0 -0.563831
1.02141e-14 0 -0.563831
1.15574e-13 0 -0.563831
3.86136e-12 0 -0.563831
-7.84953e-12 0 -0.563831
7.73159e-12 0 -0.563831
-7.73065e-12 0 -0.563831
7.8475e-12 0 -0.563831
-3.85991e-12 0 -0.563831
-1.15019e-13 0 -0.563831
9.4369e-16 0 -0.563831
1.15019e-13 0 -0.563831
3.86136e-12 0 -0.563831
-7.84908e-12 0 -0.563831
7.72449e-12 0 -0.563831
-3.15415e-11 0 -0.563831
8.28193e-09 0 -0.563831
3.23037e-07 0 -0.563831
6.50225e-06 0 -0.563831
5.60683e-05 0 -0.563832
0.000192604 0 -0.563832
0.000549797 0 -0.563712
0.00308776 0 -0.56325
0.0117762 0 -0.561369
0.029508 0 -0.554914
0.207039 0 -0.47704
0.244348 0 -0.526197
0.34815 0 -0.586074
-0.14324 0 -0.814056
-3.67225 0 -0.900824
-5.89366 0 -0.960433
2.48813 0 -0.91089
1.30016 0 -0.963431
-2.34955 0 -1.06359
1.30539 0 -1.305
-0.568598 0 -2.07154
0.504121 0 1.31986
-1.237 0 -2.65579
0.662165 0 -2.64762
-0.246446 0 4.10854
0.422437 0 1.44112
-1.06351 0 2.35189
2.448 0 2.44721
-1.56042 0 2.33131
-2.41057 0 2.20371
6.10305 0 2.04766
3.31881 0 1.99968
0.453162 0 1.95855
-0.27235 0 1.92132
0.166171 0 1.89323
0.00831354 0 1.81184
0.00433878 0 1.81442
0.00386529 0 1.81827
0.00253804 0 1.82076
0.000620181 0 1.82141
0.000195881 0 1.82154
8.8199e-06 0 1.82154
7.76428e-07 0 1.82154
5.72611e-08 0 1.82154
2.12039e-09 0 1.82154
8.63483e-12 0 1.82154
3.45973e-14 0 1.82154
1.20182e-13 0 1.82154
3.86158e-12 0 1.82154
-7.85694e-12 0 1.82154
7.73404e-12 0 1.82154
-7.73359e-12 0 1.82154
7.85799e-12 0 1.82154
-3.86224e-12 0 1.82154
-1.19058e-13 0 1.82154
3.33067e-16 0 1.82154
1.20806e-13 0 1.82154
3.86158e-12 0 1.82154
-7.85616e-12 0 1.82154
7.70117e-12 0 1.82154
-1.63191e-11 0 1.82154
-2.12048e-09 0 1.82154
-5.72412e-08 0 1.82154
-7.76384e-07 0 1.82154
-8.81982e-06 0 1.82154
-0.000195881 0 1.82154
-0.000620181 0 1.82141
-0.00253804 0 1.82076
-0.00386529 0 1.81827
-0.00433878 0 1.81442
-0.00831353 0 1.81184
-0.166171 0 1.89323
0.27235 0 1.92132
-0.453162 0 1.95855
-3.31881 0 1.99968
-6.10305 0 2.04766
2.41057 0 2.20371
1.56042 0 2.33131
-2.448 0 2.44721
1.06351 0 2.35189
-0.422437 0 1.44112
0.246446 0 4.10854
-0.662165 0 -2.64762
0.319193 0 -3.13081
0.0121102 0 2.29179
0.575993 0 -1.55002
-0.963534 0 -1.28514
2.3316 0 -1.56417
-1.62841 0 -1.62818
-2.33564 0 -1.75871
6.31206 0 -1.86297
3.20276 0 -1.96816
0.325821 0 -1.91407
-0.0386619 0 -1.93533
-0.00179723 0 -1.9381
-0.000311444 0 -1.93578
-0.000806723 0 -1.93595
-0.000409297 0 -1.93802
-0.000212241 0 -1.93937
-0.000148537 0 -1.93976
-2.081e-05 0 -1.93981
-7.199e-07 0 -1.93981
-3.25445e-08 0 -1.93981
-2.8818e-09 0 -1.93981
-4.8514e-11 0 -1.93981
-2.4114e-13 0 -1.93981
1.33227e-15 0 -1.93981
-2.01505e-14 0 -1.93981
3.86269e-12 0 -1.93981
-7.71597e-12 0 -1.93981
7.73603e-12 0 -1.93981
-7.73551e-12 0 -1.93981
7.71472e-12 0 -1.93981
-3.86083e-12 0 -1.93981
2.08722e-14 0 -1.93981
9.71445e-16 0 -1.93981
-2.08722e-14 0 -1.93981
3.86269e-12 0 -1.93981
-7.71508e-12 0 -1.93981
7.73692e-12 0 -1.93981
-7.49481e-12 0 -1.93981
5.64664e-11 0 -1.93981
2.86987e-09 0 -1.93981
3.25418e-08 0 -1.93981
7.19819e-07 0 -1.93981
2.08096e-05 0 -1.93981
0.000148537 0 -1.93976
0.000212242 0 -1.93937
0.000409298 0 -1.93802
0.000806721 0 -1.93595
0.000311447 0 -1.93578
0.00179723 0 -1.9381
0.0386619 0 -1.93533
-0.325821 0 -1.91407
-3.20276 0 -1.96816
-6.31206 0 -1.86297
2.33564 0 -1.75871
1.62841 0 -1.62818
-2.3316 0 -1.56417
0.963534 0 -1.28514
-0.575993 0 -1.55002
-0.0121102 0 2.29179
-0.319193 0 -3.13081
0.475943 0 -1.31703
0.221226 0 -1.99006
0.459196 0 -2.754
-0.911611 0 -2.42296
2.20507 0 -2.41896
-1.75849 0 -2.33534
-2.2939 0 -2.29401
6.61803 0 -2.21233
3.07631 0 -2.07071
0.358431 0 -1.97671
-0.00492247 0 -1.90174
0.00049126 0 -1.90093
0.000670905 0 -1.89896
4.63591e-05 0 -1.8985
2.73289e-05 0 -1.89857
1.31081e-05 0 -1.89854
6.05597e-06 0 -1.89851
1.25943e-06 0 -1.89851
9.62542e-08 0 -1.89851
1.66848e-09 0 -1.89851
4.00698e-11 0 -1.89851
2.7639e-12 0 -1.89851
1.91652e-14 0 -1.89851
-3.747e-16 0 -1.89851
-3.04756e-14 0 -1.89851
3.85729e-12 0 -1.89851
-7.69718e-12 0 -1.89851
7.72797e-12 0 -1.89851
-7.72826e-12 0 -1.89851
7.69872e-12 0 -1.89851
-3.85836e-12 0 -1.89851
2.98234e-14 0 -1.89851
-1.11022e-16 0 -1.89851
-2.96291e-14 0 -1.89851
3.85729e-12 0 -1.89851
-7.69784e-12 0 -1.89851
7.72708e-12 0 -1.89851
-7.74825e-12 0 -1.89851
4.94869e-12 0 -1.89851
-4.37205e-11 0 -1.89851
-1.66375e-09 0 -1.89851
-9.62222e-08 0 -1.89851
-1.25934e-06 0 -1.89851
-6.0564e-06 0 -1.89851
-1.31069e-05 0 -1.89854
-2.73304e-05 0 -1.89857
-4.63582e-05 0 -1.8985
-0.000670905 0 -1.89896
-0.00049126 0 -1.90093
0.00492247 0 -1.90174
-0.358431 0 -1.97671
-3.07631 0 -2.07071
-6.61803 0 -2.21233
2.2939 0 -2.29401
1.75849 0 -2.33534
-2.20507 0 -2.41896
0.911611 0 -2.42296
-0.459196 0 -2.754
-0.221226 0 -1.99006
-0.475943 0 -1.31703
0.451574 0 1.3801
0.315432 0 8.09383
0.275282 0 5.47699
-0.958375 0 6.02659
2.04824 0 6.0885
-1.8631 0 6.31171
-2.21133 0 6.61754
6.77115 0 6.76901
2.84059 0 6.73452
0.114974 0 6.7438
0.00330426 0 6.63011
0.00465581 0 6.62394
0.00145176 0 6.62354
7.13538e-05 0 6.62317
1.48913e-05 0 6.62311
2.16546e-06 0 6.62313
4.26047e-07 0 6.62315
9.33024e-09 0 6.62315
-6.82321e-09 0 6.62315
-1.88702e-10 0 6.62315
1.98819e-12 0 6.62315
1.8664e-12 0 6.62315
-4.46754e-13 0 6.62315
7.10543e-15 0 6.62315
7.57727e-15 0 6.62315
3.85958e-12 0 6.62315
-7.71438e-12 0 6.62315
7.73914e-12 0 6.62315
-7.73748e-12 0 6.62315
7.71427e-12 0 6.62315
-3.86235e-12 0 6.62315
2.4869e-14 0 6.62315
-5.55112e-16 0 6.62315
-2.4869e-14 0 6.62315
3.86713e-12 0 6.62315
-7.74636e-12 0 6.62315
7.73248e-12 0 6.62315
-7.29161e-12 0 6.62315
5.84732e-12 0 6.62315
-5.85562e-12 0 6.62315
1.88563e-10 0 6.62315
6.82057e-09 0 6.62315
-9.04853e-09 0 6.62315
-4.26296e-07 0 6.62315
-2.16563e-06 0 6.62313
-1.48913e-05 0 6.62311
-7.13536e-05 0 6.62317
-0.00145176 0 6.62354
-0.00465581 0 6.62394
-0.00330426 0 6.63011
-0.114974 0 6.7438
-2.84059 0 6.73452
-6.77115 0 6.76901
2.21133 0 6.61754
1.8631 0 6.31171
-2.04824 0 6.0885
0.958375 0 6.02659
-0.275282 0 5.47699
-0.315432 0 8.09383
-0.451574 0 1.3801
0.0580802 0 1.07013
0.435882 0 6.02848
-0.0998999 0 3.84452
-0.824816 0 3.71563
1.96235 0 3.32969
-1.89757 0 3.0289
-2.07378 0 3.07582
6.73728 0 2.83605
2.63018 0 2.62193
-0.0943405 0 2.61633
0.0303693 0 2.62108
0.00826957 0 2.62061
0.00139385 0 2.62047
0.000184928 0 2.62051
1.86779e-05 0 2.6205
1.63085e-06 0 2.6205
1.26074e-07 0 2.6205
4.12729e-09 0 2.6205
-2.68097e-10 0 2.6205
-2.5674e-11 0 2.6205
-2.94541e-13 0 2.6205
4.24044e-11 0 2.6205
-1.67969e-11 0 2.6205
2.63679e-13 0 2.6205
1.17611e-12 0 2.6205
3.74416e-12 0 2.6205
-7.74419e-12 0 2.6205
7.76317e-12 0 2.6205
-7.76285e-12 0 2.6205
7.74502e-12 0 2.6205
-3.87612e-12 0 2.6205
1.85422e-14 0 2.6205
-1.11022e-16 0 2.6205
-1.82617e-14 0 2.6205
4.00662e-12 0 2.6205
-8.93829e-12 0 2.6205
7.49849e-12 0 2.6205
9.01978e-12 0 2.6205
-3.46384e-11 0 2.6205
-3.58752e-12 0 2.6205
2.56913e-11 0 2.6205
2.66693e-10 0 2.6205
-3.82648e-09 0 2.6205
-1.26438e-07 0 2.6205
-1.63082e-06 0 2.6205
-1.86781e-05 0 2.6205
-0.000184928 0 2.62051
-0.00139385 0 2.62047
-0.00826957 0 2.62061
-0.0303693 0 2.62108
0.0943405 0 2.61633
-2.63018 0 2.62193
-6.73728 0 2.83605
2.07378 0 3.07582
1.89757 0 3.0289
-1.96235 0 3.32969
0.824816 0 3.71563
0.0998999 0 3.84452
-0.435882 0 6.02848
-0.0580802 0 1.07013
-0.0216472 0 0.106107
0.307123 0 0.797423
-0.0289328 0 0.543542
-0.735717 0 0.658324
1.96581 0 0.539932
-1.91607 0 0.364646
-1.98016 0 0.363205
6.75201 0 0.111822
2.62486 0 -0.12425
-0.0978648 0 -0.133938
0.0359494 0 -0.131322
0.00815123 0 -0.131599
0.00139492 0 -0.131594
0.000182328 0 -0.131592
1.87213e-05 0 -0.131593
1.5498e-06 0 -0.131593
1.03425e-07 0 -0.131593
6.13338e-09 0 -0.131593
1.58555e-09 0 -0.131593
-2.39002e-09 0 -0.131593
-6.60599e-10 0 -0.131593
2.2426e-09 0 -0.131593
-5.94192e-10 0 -0.131593
-1.78545e-10 0 -0.131593
6.03288e-11 0 -0.131593
3.8578e-12 0 -0.131593
-1.0003e-11 0 -0.131593
7.37499e-12 0 -0.131593
-7.90157e-12 0 -0.131593
7.88525e-12 0 -0.131593
-4.01135e-12 0 -0.131593
1.49658e-13 0 -0.131593
3.96239e-13 0 -0.131593
2.23377e-12 0 -0.131593
3.91331e-12 0 -0.131593
-6.81201e-11 0 -0.131593
1.86914e-10 0 -0.131593
5.85648e-10 0 -0.131593
-2.23398e-09 0 -0.131593
6.55946e-10 0 -0.131593
2.39032e-09 0 -0.131593
-1.5874e-09 0 -0.131593
-5.84075e-09 0 -0.131593
-1.03743e-07 0 -0.131593
-1.54989e-06 0 -0.131593
-1.87213e-05 0 -0.131593
-0.000182329 0 -0.131592
-0.00139492 0 -0.131594
-0.00815123 0 -0.131599
-0.0359494 0 -0.131322
0.0978648 0 -0.133938
-2.62486 0 -0.12425
-6.75201 0 0.111822
1.98016 0 0.363205
1.91607 0 0.364646
-1.96581 0 0.539932
0.735717 0 0.658324
0.0289328 0 0.543542
-0.307123 0 0.797423
0.0216472 0 0.106107
-0.0216472 0 -0.106107
0.307123 0 -0.797423
-0.0289328 0 -0.543542
-0.735717 0 -0.658324
1.96581 0 -0.539932
-1.91607 0 -0.364646
-1.98016 0 -0.363205
6.75201 0 -0.111822
2.62486 0 0.12425
-0.0978648 0 0.133938
0.0359494 0 0.131322
0.00815123 0 0.131599
0.00139492 0 0.131594
0.000182328 0 0.131592
1.87214e-05 0 0.131593
1.55087e-06 0 0.131593
8.99961e-08 0 0.131593
2.96265e-08 0 0.131593
6.87626e-08 0 0.131592
-1.62619e-07 0 0.131591
-8.48242e-08 0 0.131595
1.17466e-07 0 0.131593
-1.10131e-08 0 0.131593
-1.8292e-08 0 0.131593
2.60286e-09 0 0.131593
7.82309e-10 0 0.131593
-7.71016e-11 0 0.131593
-1.25746e-10 0 0.131593
-2.36741e-11 0 0.131593
4.48673e-11 0 0.131593
-4.09864e-11 0 0.131593
1.58978e-11 0 0.131593
1.3368e-10 0 0.131593
6.8824e-11 0 0.131593
-7.73786e-10 0 0.131593
-2.61207e-09 0 0.131593
1.82766e-08 0 0.131593
1.10825e-08 0 0.131593
-1.17556e-07 0 0.131593
8.48753e-08 0 0.131595
1.62607e-07 0 0.131591
-6.87432e-08 0 0.131592
-2.93796e-08 0 0.131593
-9.02912e-08 0 0.131593
-1.55095e-06 0 0.131593
-1.87214e-05 0 0.131593
-0.000182329 0 0.131592
-0.00139492 0 0.131594
-0.00815123 0 0.131599
-0.0359494 0 0.131322
0.0978648 0 0.133938
-2.62486 0 0.12425
-6.75201 0 -0.111822
1.98016 0 -0.363205
1.91607 0 -0.364646
-1.96581 0 -0.539932
0.735717 0 -0.658324
0.0289328 0 -0.543542
-0.307123 0 -0.797423
0.0216472 0 -0.106107
0.0580802 0 -1.07013
0.435882 0 -6.02848
-0.0998999 0 -3.84452
-0.824816 0 -3.71563
1.96235 0 -3.32969
-1.89757 0 -3.0289
-2.07378 0 -3.07582
6.73728 0 -2.83605
2.63018 0 -2.62193
-0.0943405 0 -2.61633
0.0303693 0 -2.62108
0.00826957 0 -2.62061
0.00139385 0 -2.62047
0.000184928 0 -2.62051
1.86816e-05 0 -2.6205
1.62371e-06 0 -2.6205
-8.24457e-08 0 -2.6205
4.80632e-07 0 -2.62049
9.24259e-07 0 -2.62051
-3.32013e-06 0 -2.62052
-2.09779e-06 0 -2.62043
1.89518e-06 0 -2.62047
6.33774e-08 0 -2.62048
-3.78545e-07 0 -2.62047
3.58675e-09 0 -2.62047
2.68079e-08 0 -2.62047
1.10251e-09 0 -2.62047
-4.31214e-09 0 -2.62047
-5.21064e-10 0 -2.62047
1.25477e-09 0 -2.62047
-1.25073e-09 0 -2.62047
5.12563e-10 0 -2.62047
4.32086e-09 0 -2.62047
-1.09125e-09 0 -2.62047
-2.68703e-08 0 -2.62047
-3.4729e-09 0 -2.62047
3.78416e-07 0 -2.62047
-6.32593e-08 0 -2.62048
-1.89528e-06 0 -2.62047
2.09786e-06 0 -2.62043
3.32011e-06 0 -2.62052
-9.24261e-07 0 -2.62051
-4.80356e-07 0 -2.62049
8.21444e-08 0 -2.6205
-1.62376e-06 0 -2.6205
-1.86818e-05 0 -2.6205
-0.000184928 0 -2.62051
-0.00139385 0 -2.62047
-0.00826957 0 -2.62061
-0.0303693 0 -2.62108
0.0943405 0 -2.61633
-2.63018 0 -2.62193
-6.73728 0 -2.83605
2.07378 0 -3.07582
1.89757 0 -3.0289
-1.96235 0 -3.32969
0.824816 0 -3.71563
0.0998999 0 -3.84452
-0.435882 0 -6.02848
-0.0580802 0 -1.07013
0.451574 0 -1.3801
0.315432 0 -8.09383
0.275282 0 -5.47699
-0.958375 0 -6.02659
2.04824 0 -6.0885
-1.8631 0 -6.31171
-2.21133 0 -6.61754
6.77115 0 -6.76901
2.84059 0 -6.73452
0.114974 0 -6.7438
0.00330426 0 -6.63011
0.00465581 0 -6.62394
0.00145176 0 -6.62354
7.13642e-05 0 -6.62317
1.49289e-05 0 -6.62311
1.72171e-06 0 -6.62314
-1.21106e-06 0 -6.62314
5.6795e-06 0 -6.62307
5.68017e-06 0 -6.62332
-4.03535e-05 0 -6.62341
-2.91764e-05 0 -6.62192
1.67934e-05 0 -6.62244
3.34383e-06 0 -6.62263
-4.27806e-06 0 -6.62249
-5.53664e-07 0 -6.62248
4.62957e-07 0 -6.62249
8.09264e-08 0 -6.62249
-7.22868e-08 0 -6.62249
-1.39012e-08 0 -6.62249
1.99206e-08 0 -6.62249
-1.99515e-08 0 -6.62249
1.39792e-08 0 -6.62249
7.21933e-08 0 -6.62249
-8.08339e-08 0 -6.62249
-4.63051e-07 0 -6.62249
5.53748e-07 0 -6.62248
4.278e-06 0 -6.62249
-3.34381e-06 0 -6.62263
-1.67934e-05 0 -6.62244
2.91764e-05 0 -6.62192
4.03535e-05 0 -6.62341
-5.68012e-06 0 -6.62332
-5.6793e-06 0 -6.62307