# vtk DataFile Version 3.0
SiWiRVisFile
ASCII
DATASET UNSTRUCTURED_GRID
POINTS 1600 DOUBLE
76.4079 100 72.351
74.8719 100 72.3762
75.6815 100 73.115
77.6842 100 72.6375
79.0242 100 73.4937
79.9657 100 73.905
80.8339 100 73.1802
81.809 100 73.6927
82.7666 100 74.2095
82.918 100 73.1049
92.6517 100 66.1181
91.4832 100 65.9502
92.3631 100 67.1421
90.0585 100 65.9765
83.4569 100 66.0341
90.1758 100 57.444
91.2747 100 57.1575
90.7621 100 55.2192
86.5134 100 48.4453
93.5827 100 52.9433
107.487 100 30.6196
107.658 100 28.7013
106.622 100 28.185
107.573 100 27.476
105.832 100 29.2268
111.855 100 30.2906
110.843 100 21.4433
112.767 100 21.0869
110.424 100 23.8881
111.615 100 23.2479
112.711 100 22.7401
113.433 100 23.6095
111.76 100 22.1182
114.032 100 22.5148
114.658 100 27.9336
118.524 100 29.2613
116.708 100 26.9626
116.996 100 28.7612
116.137 100 29.6882
116.403 100 30.8762
132.503 100 53.9847
137.979 100 48.4453
131.312 100 55.6008
133.118 100 56.9131
135.167 100 56.0901
135.451 100 68.359
134.049 100 65.3079
134.246 100 67.9118
132.724 100 65.4708
133.456 100 66.3801
141.233 100 72.9546
140.754 100 74.3916
141.792 100 73.8729
142.868 100 73.4694
144.749 100 73.7375
145.778 100 73.3809
146.99 100 72.8961
148.97 100 73.3201
150.04 100 72.1518
148.073 100 72.5644
73.9712 100 73.1112
74.8732 100 73.7263
76.9178 100 73.4454
77.8276 100 74.0631
78.9807 100 74.5518
80.9182 100 74.3728
81.9128 100 74.8625
83.0136 100 75.3129
84.2122 100 74.5516
85.4137 100 75.2679
86.6747 100 75.2887
92.4162 100 64.9557
91.1496 100 67.0955
91.1822 100 62.9229
90.9438 100 58.6562
91.1697 100 64.4147
92.0498 100 56.3582
91.8516 100 55.1812
92.9503 100 55.1933
96.4179 100 52.76
107.036 100 29.5849
96.0463 100 37.1622
106.67 100 41.3037
109.116 100 26.9995
108.645 100 28.1576
111.818 100 29.2212
110.973 100 28.389
109.863 100 27.8462
106.501 100 18.1288
111.371 100 24.3518
112.398 100 23.9628
118.387 100 18.2028
113.528 100 25.8428
115.511 100 26.9932
115.267 100 28.8462
115.964 100 28.0101
114.634 100 25.5268
119.116 100 41.2705
128.446 100 37.1619
117.207 100 30.1256
127.414 100 53.6265
129.446 100 54.1582
132.149 100 52.8476
134.179 100 56.5034
133.48 100 64.3495
133.968 100 57.7074
132.159 100 61.5792
134.563 100 66.8489
131.722 100 64.9338
138.551 100 75.5436
139.583 100 75.4469
140.621 100 75.4644
141.709 100 75.0884
142.796 100 74.6555
143.845 100 74.235
145.723 100 74.5762
146.698 100 74.0138
147.762 100 73.628
149.801 100 74.0426
150.496 100 73.19
73.8378 100 74.1343
75.0563 100 74.8477
75.9574 100 74.2688
77.0016 100 74.7075
78.0447 100 75.2196
80.0714 100 75.0698
81.0226 100 75.4783
82.0374 100 75.9741
82.9947 100 76.4883
84.3152 100 75.7073
86.1834 100 76.4067
85.5025 100 77.4594
88.0537 100 77.4389
92.0892 100 63.8514
89.8208 100 61.7692
93.0756 100 60.8792
92.5279 100 57.3347
93.1158 100 56.2897
94.0732 100 55.6292
95.4586 100 53.384
97.2678 100 52.0338
104.646 100 41.9385
105.668 100 41.4346
106.519 100 42.4131
97.6689 100 39.0347
107.711 100 41.7697
107.465 100 40.3997
106.173 100 40.4505
110.996 100 25.3959
112.739 100 26.6238
112.557 100 25.282
113.475 100 24.7332
122.181 100 40.8382
118.075 100 39.2501
117.794 100 41.0192
120.998 100 41.6553
118.594 100 42.4503
119.707 100 42.2283
120.657 100 42.8291
126.588 100 52.7193
131.164 100 54.4292
130.124 100 55.234
133.353 100 55.7293
132.362 100 56.0607
132.598 100 59.4197
132.152 100 60.463
132.193 100 63.7814
136.894 100 76.1965
138.036 100 76.7142
139.214 100 76.3795
140.317 100 76.4952
141.493 100 76.1668
142.517 100 75.769
143.625 100 75.4327
144.693 100 74.8374
146.593 100 75.2629
147.536 100 74.6964
148.524 100 74.3196
149.448 100 74.9758
150.849 100 74.3091
73.9489 100 75.2969
75.0052 100 75.9817
76.0758 100 75.4058
77.0299 100 75.9252
79.0839 100 75.8693
80.2515 100 76.2296
81.2221 100 76.7579
82.1793 100 77.2026
84.0187 100 76.9285
85.0392 100 76.5454
85.2386 100 78.5056
86.7378 100 77.3202
87.2515 100 76.2568
92.2779 100 62.5871
91.2482 100 61.7534
90.5332 100 60.8446
93.0813 100 58.3722
92.0223 100 58.3377
93.7083 100 57.3986
94.8722 100 56.4635
94.9369 100 54.3638
97.6905 100 53.1649
104.541 100 40.801
105.002 100 45.9454
105.411 100 42.7355
105.763 100 43.8929
108.081 100 44.1349
110.533 100 44.1957
108.35 100 40.966
112.034 100 28.0464
113.975 100 26.885
114.694 100 38.8403
115.375 100 42.8613
116.47 100 42.8158
117.583 100 43.2178
119.55 100 43.3649
118.586 100 43.7109
119.609 100 40.2532
126.274 100 53.9027
128.998 100 55.4014
129.746 100 56.3759
132.023 100 57.132
132.076 100 58.294
131.525 100 59.3989
131.093 100 60.4454
131.342 100 62.4268
130.966 100 63.5689
137.509 100 75.233
138.208 100 77.819
139.223 100 77.4963
140.278 100 77.5796
141.357 100 77.2254
142.413 100 76.8166
143.441 100 76.4653
144.517 100 76.076
145.566 100 75.6264
147.472 100 75.8417
148.474 100 75.4394
149.4 100 76.0591
150.546 100 75.3529
74.013 100 76.5481
75.0005 100 77.0521
76.0328 100 76.5793
78.0055 100 76.3751
78.9749 100 77.0868
79.9143 100 77.6125
81.1513 100 77.9957
82.2676 100 78.3183
83.2602 100 77.766
84.2958 100 78.1119
85.2008 100 79.8582
88.7236 100 78.3371
88.3657 100 76.3538
95.2045 100 60.0687
91.9278 100 60.8612
93.3358 100 59.4452
95.7947 100 59.0694
95.464 100 57.9427
95.192 100 55.3459
96.1882 100 55.0982
96.4605 100 53.911
103.064 100 50.5361
105.175 100 44.8123
107.217 100 44.9032
107.061 100 43.7955
108.373 100 45.2339
109.206 100 44.6285
110.35 100 45.3471
107.747 100 42.9641
110.718 100 29.8703
110.08 100 30.7359
116.352 100 41.6862
112.833 100 44.3058
114.735 100 44.6109
116.377 100 43.998
117.383 100 42.0864
117.584 100 44.2993
117.875 100 45.5657
122.488 100 50.1582
128.515 100 53.3015
128.197 100 54.4321
128.712 100 56.4685
131.027 100 56.9331
130.991 100 58.3676
129.817 100 58.5796
130.171 100 62.7905
130.58 100 61.6367
136.981 100 77.3705
137.264 100 78.4422
139.642 100 79.6215
139.783 100 78.4619
141.116 100 78.2589
142.153 100 77.8794
143.27 100 78.0149
144.391 100 77.256
145.372 100 76.8714
146.307 100 76.3842
148.327 100 76.498
149.319 100 77.1786
150.534 100 76.5414
73.6154 100 77.6806
74.7991 100 78.2291
75.9194 100 77.6909
77.0417 100 76.9945
77.9772 100 77.5841
79.0343 100 78.1873
80.1368 100 78.7128
81.1839 100 79.1866
82.232 100 79.5579
83.206 100 78.841
84.3966 100 79.231
86.3715 100 78.3042
88.6414 100 79.4481
88.1301 100 75.1782
89.6394 100 75.8351
94.0596 100 60.3307
96.2849 100 59.9518
97.238 100 59.2557
96.8014 100 58.3209
95.9122 100 56.2162
97.2813 100 54.562
99.3681 100 53.5314
103.92 100 49.0621
104.992 100 48.4823
106.198 100 45.2239
107.283 100 45.9582
108.269 100 47.9326
109.368 100 45.6725
111.817 100 43.9316
111.05 100 43.076
114.243 100 42.5561
113.818 100 45.2811
115.813 100 45.0442
115.731 100 46.1731
116.808 100 45.109
118.715 100 44.9201
118.771 100 46.0858
122.272 100 48.8955
124.719 100 54.7428
127.043 100 54.6785
127.87 100 55.524
129.75 100 57.5054
128.805 100 58.6497
129.198 100 59.916
130.375 100 59.5381
135.898 100 75.8281
138.445 100 72.0631
136.284 100 79.2581
138.737 100 78.7939
140.737 100 79.4211
142.296 100 79.0068
142.853 100 80.1455
143.377 100 79.055
144.326 100 78.6919
145.216 100 78.0705
146.316 100 77.7107
147.289 100 76.8938
148.272 100 77.6149
149.336 100 78.3801
150.363 100 77.8378
72.7752 100 78.3297
73.771 100 78.8115
75.8482 100 78.7063
76.9889 100 78.1514
78.0186 100 78.7839
78.1881 100 81.1857
80.2111 100 79.7978
81.4048 100 80.2661
82.4291 100 80.6602
83.334 100 79.9783
85.877 100 80.8281
87.5208 100 78.3867
89.2658 100 80.507
89.077 100 74.5142
94.6686 100 61.1869
94.4398 100 59.1494
95.878 100 61.0032
98.1444 100 59.7681
96.8652 100 57.1388
97.2275 100 55.6819
98.5457 100 54.2328
100.543 100 53.9896
104.155 100 50.3534
106.065 100 46.4201
109.307 100 48.481
108.784 100 46.8077
106.245 100 50.4714
110.033 100 46.6873
105.585 100 51.3648
107.456 100 50.1884
118.838 100 51.7633
117.065 100 50.768
115.215 100 47.3849
116.212 100 51.557
116.487 100 48.4309
116.282 100 47.2997
117.07 100 46.2814
121.483 100 49.8285
122.34 100 52.0431
125.937 100 55.1885
126.836 100 55.765
128.671 100 57.6318
127.515 100 58.4312
128.108 100 60.3507
130.002 100 60.6562
129.556 100 61.8834
136.53 100 74.7484
130.511 100 79.1717
137.726 100 79.4227
140.834 100 80.4811
141.811 100 80.0309
142.743 100 81.25
143.981 100 79.9431
145.09 100 79.4563
146.122 100 79.8673
146.033 100 78.821
147.295 100 78.1105
148.152 100 78.8896
150.153 100 79.005
151.165 100 78.676
72.9779 100 79.4859
73.8697 100 80.0385
74.99 100 79.3899
75.9208 100 79.8352
76.9119 100 79.232
77.1718 100 80.4795
78.1431 100 79.8536
80.5822 100 80.8837
81.6427 100 81.5012
82.8345 100 81.571
83.8599 100 81.5487
84.8048 100 82.2033
86.1707 100 79.3276
86.4243 100 82.0761
85.437 100 83.4092
90.3637 100 79.9696
95.9023 100 63.1787
97.2285 100 60.3846
99.1986 100 57.8251
98.1185 100 58.4228
98.5709 100 56.6374
98.3598 100 55.3306
104.385 100 51.4686
105.295 100 47.3175
107.786 100 47.0386
108.262 100 49.0042
107.273 100 48.38
105.093 100 52.3557
106.288 100 52.2295
108.131 100 53.3293
117.616 100 51.7242
119.799 100 52.168
120.617 100 53.114
117.427 100 48.981
116.424 100 49.74
117.293 100 47.7743
117.937 100 46.8348
121.944 100 51.0907
124.956 100 55.7462
127.538 100 56.7955
126.304 100 57.7003
126.391 100 58.9129
127.373 100 59.5583
128.84 100 61.0894
131.375 100 78.3057
139.874 100 82.4093
139.657 100 80.7852
138.605 100 80.1091
140.562 100 81.561
141.128 100 82.5818
141.607 100 81.3682
144.132 100 81.1734
145.275 100 81.9736
145.023 100 80.6406
147.036 100 80.5198
147.065 100 79.3198
147.961 100 80.0055
149.038 100 79.5142
150.06 100 80.2627
151.089 100 79.7237
72.8803 100 80.8212
74.1092 100 81.1216
74.9837 100 80.4948
76.1257 100 80.8753
76.7857 100 82.7286
74.856 100 84.2201
77.0743 100 81.5374
79.4619 100 81.4739
80.5168 100 81.9904
79.3954 100 82.551
81.6226 100 82.5857
82.2149 100 83.4356
82.9498 100 82.7736
84.1438 100 83.4683
86.5192 100 83.1528
89.8944 100 78.4734
97.0757 100 62.924
97.1882 100 61.6777
99.0633 100 58.9801
101.09 100 58.067
[...]
POINT_DATA 1600
SCALARS mass double
LOOKUP_TABLE default
1
1
1
1
1
1
1
1
1
1
1
1
1
1
1
1
1
1
1
1
1
1
1
1
1
1
1
1
1
1
1
1
1
1
1
1
1
1
1
1
1
1
1
1
1
1
1
1
1
1
1
1
1
1
1
1
1
1
1
1
1
1
1
1
1
1
1
1
1
1
1
1
1
1
1
1
1
1
1
1
1
1
1
1
1
1
1
1
1
1
1
1
1
1
1
1
1
1
1
1
1
1
1
1
1
1
1
1
1
1
1
1
1
1
1
1
1
1
1
1
1
1
1
1
1
1
1
1
1
1
1
1
1
1
1
1
1
1
1
1
1
1
1
1
1
1
1
1
1
1
1
1
1
1
1
1
1
1
1
1
1
1
1
1
1
1
1
1
1
1
1
1
1
1
1
1
1
1
1
1
1
1
1
1
1
1
1
1
1
1
1
1
1
1
1
1
1
1
1
1
1
1
1
1
1
1
1
1
1
1
1
1
1
1
1
1
1
1
1
1
1
1
1
1
1
1
1
1
1
1
1
1
1
1
1
1
1
1
1
1
1
1
1
1
1
1
1
1
1
1
1
1
1
1
1
1
1
1
1
1
1
1
1
1
1
1
1
1
1
1
1
1
1
1
1
1
1
1
1
1
1
1
1
1
1
1
1
1
1
1
1
1
1
1
1
1
1
1
1
1
1
1
1
1
1
1
1
1
1
1
1
1
1
1
1
1
1
1
1
1
1
1
1
1
1
1
1
1
1
1
1
1
1
1
1
1
1
1
1
1
1
1
1
1
1
1
1
1
1
1
1
1
1
1
1
1
1
1
1
1
1
1
1
1
1
1
1
1
1
1
1
1
1
1
1
1
1
1
1
1
1
1
1
1
1
1
1
1
1
1
1
1
1
1
1
1
1
1
1
1
1
1
1
1
1
1
1
1
1
1
1
1
1
1
1
1
1
1
1
1
1
1
1
1
1
1
1
1
1
1
1
1
1
1
1
1
1
1
1
1
1
1
1
1
1
1
1
1
1
1
1
1
1
1
1
1
1
1
1
1
1
1
1
1
1
1
1
1
1
1
1
1
1
1
1
1
1
1
1
1
1
1
1
1
1
1
1
1
1
1
1
1
1
1
1
1
1
1
1
1
1
1
1
1
1
1
1
1
1
1
1
1
1
1
1
1
1
1
1
1
1
1
1
1
1
1
1
1
1
1
1
1
1
1
1
1
1
1
1
1
1
1
1
1
1
1
1
1
1
1
1
1
1
1
1
1
1
1
1
1
1
1
1
1
1
1
1
1
1
1
1
1
1
1
1
1
1
1
1
1
1
1
1
1
1
1
1
1
1
1
1
1
1
1
1
1
1
1
1
1
1
1
1
1
1
1
1
1
1
1
1
1
1
1
1
1
1
1
1
1
1
1
1
1
1
1
1
1
1
1
1
1
1
1
1
1
1
1
1
1
1
1
1
1
1
1
1
1
1
1
1
1
1
1
1
1
1
1
1
1
1
1
1
1
1
1
1
1
1
1
1
1
1
1
1
1
1
1
1
1
1
1
1
1
1
1
1
1
1
1
1
1
1
1
1
1
1
1
1
1
1
1
1
1
1
1
1
1
1
1
1
1
1
1
1
1
1
1
1
1
1
1
1
1
1
1
1
1
1
1
1
1
1
1
1
1
1
1
1
1
1
1
1
1
1
1
1
1
1
1
1
1
1
1
1
1
1
1
1
1
1
1
1
1
1
1
1
1
1
1
1
1
1
1
1
1
1
1
1
1
1
1
1
1
1
1
1
1
1
1
1
1
1
1
1
1
1
1
1
1
1
1
1
1
1
1
1
1
1
1
1
1
1
1
1
1
1
1
1
1
1
1
1
1
1
1
1
1
1
1
1
1
1
1
1
1
1
1
1
1
1
1
1
1
1
1
1
1
1
1
1
1
1
1
1
1
1
1
1
1
1
1
1
1
1
1
1
1
1
1
1
1
1
1
1
1
1
1
1
1
1
1
1
1
1
1
1
1
1
1
1
1
1
1
1
1
1
1
1
1
1
1
1
1
1
1
1
1
1
1
1
1
1
1
1
1
1
1
1
1
1
1
1
1
1
1
1
1
1
1
1
1
1
1
1
1
1
1
1
1
1
1
1
1
1
1
1
1
1
1
1
1
1
1
1
1
1
1
1
1
1
1
1
1
1
1
1
1
1
1
1
1
1
1
1
1
1
1
1
1
1
1
1
1
1
1
1
1
1
1
1
1
1
1
1
1
1
1
1
1
1
1
1
1
1
1
1
1
1
1
1
1
1
1
1
1
1
1
1
1
1
1
1
1
1
1
1
1
1
1
1
1
1
1
1
1
1
1
1
1
1
1
1
1
1
1
1
1
1
1
1
1
1
1
1
1
1
1
1
1
1
1
1
1
1
1
1
1
1
1
1
1
1
1
1
1
1
1
1
1
1
1
1
1
1
1
1
1
1
1
1
1
1
1
1
1
1
1
1
1
1
1
1
1
1
1
1
1
1
1
1
1
1
1
1
1
1
1
1
1
1
1
1
1
1
1
1
1
1
1
1
1
1
1
1
1
1
1
1
1
1
1
1
1
1
1
1
1
1
1
1
1
1
1
1
1
1
1
1
1
1
1
1
1
1
1
1
1
1
1
1
1
1
1
1
1
1
1
1
1
1
1
1
1
1
1
1
1
1
1
1
1
1
1
1
1
1
1
1
1
1
1
1
1
1
1
1
1
1
1
1
1
1
1
1
1
1
1
1
1
1
1
1
1
1
1
1
1
1
1
1
1
1
1
1
1
1
1
1
1
1
1
1
1
1
1
1
1
1
1
1
1
1
1
1
1
1
1
1
1
1
1
1
1
1
1
1
1
1
1
1
1
1
1
1
1
1
1
1
1
1
1
1
1
1
1
1
1
1
1
1
1
1
1
1
1
1
1
1
1
1
1
1
1
1
1
1
1
1
1
1
1
1
1
1
1
1
1
1
1
1
1
1
1
1
1
1
1
1
1
1
1
1
1
1
1
1
1
1
1
1
1
1
1
1
1
1
1
1
1
1
1
1
1
1
1
1
1
1
1
1
1
1
1
1
1
1
1
1
1
1
1
1
1
1
1
1
1
1
1
1
1
1
1
1
1
1
1
1
1
1
1
1
1
1
1
1
1
1
1
1
1
1
1
1
1
1
1
1
1
1
1
1
1
1
1
1
1
1
1
1
1
1
1
1
1
1
1
1
1
1
1
1
1
1
1
1
1
1
1
1
1
1
1
1
1
1
1
1
1
1
1
1
1
1
1
1
1
1
1
1
1
1
1
1
1
1
1
1
1
1
1
1
1
1
1
1
1
1
1
1
1
1
1
1
1
1
1
1
1
1
1
1
1
1
1
1
1
1
1
1
1
1
1
1
1
1
1
1
1
1
1
1
1
1
1
1
1
1
1
1
1
1
1
1
1
1
1
1
1
1
1
1
1
1
1
1
1
1
1
1
1
1
1
1
1
1
1
1
1
1
1
1
1
1
1
1
1
1
1
1
1
1
1
1
1
1
1
1
1
1
1
1
1
1
1
1
1
1
1
1
1
1
1
1
1
1
1
1
1
1
1
1
1
1
1
1
1
1
1
VECTORS force double
36.1805 0 -12.638
-8.13337 0 9.68093
66.3064 0 -6.16482
-5.55842 0 6.33358
-73.6891 0 -56.669
31.3467 0 28.5519
-7.95868 0 11.4007
4.52829 0 2.74105
32.696 0 1.34347
-10.8161 0 5.50428
-5.6501 0 -39.4047
8.44672 0 5.05468
-23.2755 0 22.4843
11.5294 0 2.12546
0 0 0
8.70481 0 5.11355
11.3054 0 15.0024
-10.0844 0 3.28462
0 0 0
1.76625 0 1.31433
-0.986249 0 -3.07994
3.47716 0 -29.4505
10.7744 0 12.3309
6.15006 0 23.8907
19.8859 0 -5.54092
-11.8164 0 20.2151
4.83847 0 3.47247
-5.46214 0 9.68435
-22.4251 0 -18.1296
-20.55 0 -23.7217
-5.34826 0 11.9112
11.8579 0 -13.4578
5.02423 0 0.565404
-17.3657 0 11.9032
7.71178 0 -26.1297
-7.49362 0 1.23159
-17.8727 0 11.7465
-15.7078 0 10.4011
8.65229 0 -5.72341
-8.27451 0 -6.81926
-10.872 0 -5.13534
0 0 0
-9.5794 0 1.21456
8.59948 0 -8.98831
20.211 0 -8.91948
-11.9228 0 -5.91438
-14.0546 0 16.8551
8.46647 0 5.88049
17.5213 0 -6.15072
11.487 0 -11.5332
-10.0389 0 -11.4942
17.138 0 -15.4259
18.7458 0 40.5902
1.72493 0 21.2849
51.8494 0 -24.2206
20.5499 0 4.53084
-30.0358 0 -7.58349
-12.6396 0 -17.1825
-2.54483 0 7.50274
6.33584 0 5.12185
7.91676 0 -73.2579
-49.243 0 62.0627
-33.0444 0 5.26717
61.6303 0 -19.2173
1.97181 0 43.4283
30.6048 0 -6.3825
7.74195 0 -0.214341
-3.75143 0 8.39709
-5.72197 0 14.9646
-2.2866 0 18.5209
-9.4166 0 13.0971
-15.2907 0 7.11814
13.0971 0 -14.2758
12.1611 0 1.52135
-1.1798 0 -11.2337
-6.86493 0 13.0857
-28.8858 0 -28.3676
8.37167 0 13.1053
15.1529 0 5.40202
4.70604 0 14.6713
-22.5792 0 5.71228
0.135889 0 0.156814
185.329 0 112.183
-6.73258 0 13.89
4.0629 0 -19.3378
-16.7205 0 -36.5945
-6.67724 0 8.49574
-1.67953 0 7.56408
0 0 0
33.2385 0 16.0607
33.4522 0 26.7069
0 0 0
10.43 0 1.61177
-4.69731 0 4.7865
7.56311 0 24.3723
15.09 0 -8.20001
-15.0831 0 4.38459
-12.9255 0 9.08496
0 0 0
1.01303 0 -19.5649
-9.82058 0 -7.81245
-16.2961 0 15.9595
2.36495 0 11.3265
-31.9286 0 20.4472
-15.6079 0 4.0466
-5.77277 0 -18.2794
-14.7492 0 5.47438
-9.36163 0 -10.1081
7.49353 0 -13.6028
-64.9844 0 0.968596
53.4082 0 -103.493
63.4242 0 -1.85222
-29.6206 0 -48.2035
-13.3892 0 -4.79719
-110.828 0 7.01874
24.4056 0 -57.8613
-8.96864 0 -3.58352
-18.1101 0 -30.9778
18.2053 0 -103.866
0.730604 0 1.7687
-1.42829 0 76.3433
-29.2192 0 16.3008
20.1788 0 -29.5726
-37.1262 0 34.7479
-4.05674 0 4.00382
-79.1249 0 -15.4011
58.9493 0 32.6706
-7.95 0 0.496848
27.0746 0 -5.21779
-10.3262 0 -2.61657
-45.5188 0 -25.3044
52.5962 0 47.4385
0.490087 0 -22.0744
11.9118 0 -23.1046
14.5862 0 -5.69226
-0.72284 0 -5.54679
13.6042 0 10.1514
32.9124 0 17.7185
-2.77721 0 1.94947
8.86012 0 -3.08337
4.39246 0 10.7244
1.30267 0 -10.825
-105.685 0 32.4478
3.85405 0 0.595042
-0.135889 0 -0.156814
-59.2787 0 60.5954
-52.5563 0 -3.99154
-64.7103 0 -133.357
2.79285 0 -0.389879
6.02534 0 -1.69994
-29.1574 0 7.82663
18.4643 0 -18.6169
-6.01526 0 4.15481
1.24423 0 3.11269
7.15656 0 9.89089
-6.71991 0 9.77876
-7.57113 0 9.63047
1.81023 0 2.72583
-9.28428 0 -6.75082
6.19326 0 21.5142
-1.08825 0 13.2268
5.0715 0 0.340973
44.3942 0 -1.37127
-49.8059 0 18.0104
13.6484 0 -7.41975
25.9841 0 -14.4592
-10.5182 0 10.4783
36.566 0 21.0872
-0.162206 0 -12.3702
-37.4082 0 131.472
9.48174 0 4.67952
-15.8612 0 -10.4077
52.7303 0 -22.2426
3.34918 0 -63.7923
8.61945 0 69.4979
-24.6454 0 -23.1703
-6.56301 0 42.7775
88.8045 0 41.7274
-20.1829 0 92.2526
12.5525 0 -16.0348
22.1699 0 4.74897
7.18672 0 -32.1797
-23.8855 0 -4.4002
-6.80997 0 -39.8584
-0.862301 0 -3.93858
-36.1217 0 8.2745
-30.61 0 -11.2977
22.668 0 25.2005
-3.19283 0 8.17011
-8.83418 0 -73.9198
84.4601 0 60.15
36.2235 0 -15.9098
21.3248 0 5.71919
-15.3874 0 3.7755
-3.53666 0 10.3044
8.09674 0 12.6175
34.2773 0 -18.5945
-35.6207 0 -8.78501
-14.8359 0 -8.34067
-31.2948 0 -1.06232
-17.7956 0 -76.8623
-14.0776 0 4.95683
14.0157 0 10.3154
18.4001 0 1.47922
17.9425 0 2.56629
20.4057 0 -15.9748
22.8741 0 9.73469
5.35727 0 -0.968695
75.0618 0 -31.8709
1.57223 0 6.69501
0.815475 0 -0.0372355
0 0 0
-10.8697 0 -0.179973
26.0598 0 6.1015
-7.84246 0 -30.1245
71.7954 0 -42.2265
-75.2296 0 28.5838
-2.53711 0 3.22964
0.838434 0 -8.85959
4.17346 0 -15.3825
57.6072 0 -18.2475
83.1436 0 25.6114
12.698 0 9.16734
-25.3244 0 -4.10266
-34.7245 0 3.38334
-1.49039 0 14.7901
19.3768 0 -4.04182
-5.98139 0 11.1689
-38.8317 0 5.44356
-12.4455 0 -11.7516
67.8025 0 -81.4534
-56.643 0 -53.1509
-15.2301 0 37.4648
13.346 0 42.7351
13.7674 0 7.7083
-51.719 0 18.4924
-3.91263 0 -10.6228
-7.56397 0 -31.97
11.6703 0 19.0842
-24.1322 0 21.9685
-1.89034 0 -4.66363
1.31765 0 37.6228
-13.0657 0 -24.4105
32.8874 0 18.1821
-21.189 0 -38.4327
67.4936 0 -19.1551
-2.65718 0 -1.75494
-30.3 0 2.93369
-23.4486 0 -39.2254
-64.0335 0 -36.9464
63.1391 0 49.718
5.74938 0 -11.1504
11.1938 0 -6.36515
-27.6247 0 3.626
-1.64976 0 1.47281
7.03846 0 14.5425
-47.4961 0 -93.2247
9.14025 0 7.81874
-52.1025 0 113.554
82.4636 0 -25.9804
-36.7964 0 -24.5604
-0.5921 0 0.822659
-11.3604 0 13.7355
37.2486 0 -43.9129
-47.8319 0 5.62461
-86.2693 0 36.5877
52.004 0 -75.9049
46.85 0 -23.92
5.3835 0 -18.6219
34.4291 0 -25.3681
-10.6918 0 16.4029
-3.93123 0 4.89251
22.7678 0 11.5765
7.45243 0 3.25054
12.8357 0 4.57269
13.8608 0 13.3671
6.75352 0 25.9006
-71.4073 0 -24.8375
39.8317 0 -14.8151
-1.00801 0 19.8148
9.10504 0 5.43754
-70.5719 0 16.4967
-96.239 0 -19.7491
-27.4486 0 7.36938
94.6339 0 10.8494
18.863 0 -9.63286
33.6097 0 -19.5862
25.2597 0 -35.7244
-0.950933 0 -2.43651
-9.75231 0 -3.37543
-24.3113 0 95.2921
-4.33828 0 61.5318
55.1402 0 52.932
4.02034 0 -48.2828
-46.1185 0 13.1247
5.44087 0 4.70153
62.2912 0 1.29229
30.7361 0 37.4133
4.73964 0 7.98302
-22.0181 0 -0.457296
44.7417 0 -21.2821
1.06268 0 -3.53277
12.7613 0 -78.6078
1.99504 0 36.2925
8.98807 0 10.8063
-42.3718 0 34.2652
3.75794 0 -23.4883
-7.80813 0 -21.9535
30.0214 0 -23.8268
28.9321 0 40.0343
-86.2003 0 -46.7566
-13.5608 0 -17.3683
7.04099 0 6.50667
-1.34003 0 15.9656
-15.494 0 3.12746
-14.0902 0 -50.7123
21.0431 0 56.2694
-23.3015 0 30.927
-33.2394 0 -58.407
38.6396 0 -8.60864
44.3792 0 28.7179
21.9666 0 -1.76085
21.639 0 12.1624
5.1261 0 0.950128
-18.0106 0 22.3182
-2.79913 0 40.5959
63.9018 0 41.6338
-38.6735 0 78.4438
-30.9607 0 -7.42097
-0.854846 0 16.0112
9.36948 0 3.18643
-2.30943 0 -8.09609
-128.115 0 -16.865
14.9398 0 13.7496
131.419 0 16.0617
14.0421 0 -30.0302
47.568 0 32.0413
-5.71147 0 20.8688
-1.60697 0 -59.161
15.1048 0 14.5491
33.361 0 -0.888981
16.7477 0 -24.2783
-86.4441 0 83.052
-9.59547 0 -11.6835
3.92676 0 11.6829
-18.7833 0 -25.7428
0 0 0
-1.28645 0 -9.94103
-8.7332 0 20.242
9.01766 0 -41.9493
-17.2079 0 -0.727446
49.9141 0 -17.8145
-77.3233 0 69.2191
45.7181 0 -37.0752
11.3186 0 -22.1105
-39.965 0 -30.1607
-3.12042 0 53.3713
9.67747 0 5.81084
-68.2575 0 -48.287
-13.5707 0 2.32811
-26.2147 0 26.319
63.9032 0 -24.0035
14.6111 0 76.8432
-3.70095 0 -18.7004
-14.3781 0 -38.5414
-6.44658 0 1.26003
17.9518 0 20.7567
29.6268 0 -20.5535
-45.2117 0 -108.633
-2.87223 0 -9.32426
-2.85514 0 -2.67659
-7.67114 0 6.40545
12.8342 0 -10.1519
-3.30836 0 11.7992
37.7447 0 18.7392
7.28815 0 15.4969
-4.47362 0 -5.56736
66.8497 0 16.0581
-7.32561 0 -0.332169
-5.91008 0 0.602578
-20.8157 0 12.9138
-16.3304 0 0.814497
14.6135 0 -12.453
-7.59682 0 -24.0531
-17.4587 0 -4.08567
81.9339 0 -20.1306
13.7098 0 -0.797541
-17.9003 0 -16.6027
-7.74646 0 -4.56624
-12.4263 0 6.48599
-25.0747 0 -100.363
-13.7281 0 -11.386
-16.9627 0 -6.23751
13.8564 0 -6.01045
-54.9363 0 28.9793
29.7705 0 -17.0665
-89.42 0 -22.2671
-25.8654 0 -5.08501
12.0642 0 57.5745
-19.1062 0 -27.3324
-7.8463 0 38.7919
-29.6601 0 -75.3862
0.583942 0 -1.24498
-20.7401 0 -16.2922
-5.1818 0 16.2808
-23.4338 0 7.74854
-14.2838 0 11.7202
-3.41198 0 -21.1202
9.15969 0 2.94548
-24.3479 0 41.4417
-32.0344 0 -9.74577
-1.26008 0 14.6028
30.5721 0 22.5716
0.918844 0 16.4245
-11.8894 0 66.1447
7.0828 0 -42.5743
21.4867 0 25.5855
-14.8786 0 -23.5528
22.2205 0 63.7509
22.8162 0 -55.0709
-75.6256 0 11.5109
46.7929 0 11.661
-83.2983 0 -34.9253
59.4881 0 -4.68156
1.16157 0 26.6533
9.07015 0 -43.287
-10.8364 0 29.2024
-53.3914 0 41.0651
-6.9623 0 -31.1244
-33.3731 0 128.453
71.0994 0 2.03033
0.162742 0 10.4849
-14.1368 0 39.3042
-14.4698 0 -22.6987
-2.74774 0 -25.9849
-13.5052 0 11.2752
20.3817 0 6.66077
44.7289 0 41.194
-13.9337 0 3.46568
-17.8098 0 4.73035
9.19552 0 -6.51552
-4.31469 0 8.61685
10.2201 0 -1.09765
18.8458 0 2.3104
-133.454 0 -61.7883
-4.96323 0 19.8676
5.95344 0 -6.3894
17.5109 0 3.48272
-18.5519 0 -4.98637
11.1275 0 26.2567
14.6611 0 12.2185
55.9428 0 24.0845
-8.60205 0 -5.51778
8.45569 0 -5.43661
16.4768 0 -7.29865
27.7648 0 -39.331
15.4977 0 19.7637
-55.5266 0 -43.3889
24.625 0 72.5215
9.19052 0 -13.2888
2.68539 0 5.09726
13.9591 0 0.179066
-23.892 0 -16.8493
50.6975 0 -4.15614
3.89727 0 6.11138
-14.401 0 -37.189
11.6455 0 -9.05808
18.3853 0 -6.34012
-24.9449 0 0.244124
-19.1278 0 -15.2246
31.8344 0 -3.69114
-57.0718 0 31.618
-34.5827 0 -3.1903
30.7055 0 -50.6143
-29.1024 0 25.8004
16.2941 0 -12.7076
48.4258 0 -6.56409
25.2406 0 -6.97634
30.4146 0 -56.2556
-33.8365 0 -3.55519
24.5461 0 -11.6283
-31.6302 0 21.0248
22.2452 0 -0.208873
-2.22669 0 23.7498
6.58651 0 6.65772
6.58334 0 -0.818992
-7.62397 0 40.7784
5.70594 0 -19.9498
3.46299 0 14.0731
3.81885 0 11.4001
36.2873 0 -134.304
-87.4317 0 159.784
108.106 0 -110.201
8.13154 0 6.52795
-11.2013 0 16.7159
-27.6401 0 8.47124
-0.349571 0 6.90956
9.61145 0 -3.22356
3.7924 0 11.2315
5.15401 0 0.215823
-15.2707 0 -2.78323
9.57276 0 12.658
-9.79826 0 -1.50343
-31.0267 0 0.411196
-2.80371 0 7.47776
17.8493 0 12.2806
-31.5394 0 -6.20445
-10.4439 0 -72.6519
4.3946 0 77.5508
-6.86978 0 0.172374
-15.1515 0 14.246
-20.1697 0 78.9035
-3.62841 0 -10.2704
-10.295 0 9.44738
-27.7759 0 56.4647
24.1823 0 -45.4206
67.53 0 -44.34
23.9053 0 12.4823
0.510525 0 -7.21995
3.52589 0 -1.91785
17.0164 0 8.58598
48.8706 0 -4.52057
-27.181 0 -4.50347
-20.4764 0 -7.1557
-28.9907 0 11.2403
-11.4464 0 4.47878
5.70228 0 27.4486
18.3869 0 47.4554
-5.66055 0 -16.0205
-10.1542 0 -11.8027
7.65983 0 6.36531
30.8011 0 8.60649
37.4025 0 6.56632
-24.363 0 -10.7347
16.2079 0 18.476
-10.8169 0 5.96284
195.382 0 -109.904
-45.1533 0 35.812
10.3431 0 31.6907
-4.95771 0 55.2699
13.6347 0 -16.2727
-13.7526 0 -30.1834
-60.719 0 -6.21452
8.12774 0 13.569
59.0141 0 19.038
-5.47518 0 -8.02561
-16.0051 0 0.249643
38.4923 0 33.0246
26.226 0 -48.3114
11.1646 0 -2.8932
8.38178 0 5.07203
-66.4562 0 107.097
8.43507 0 5.71131
5.59325 0 7.57645
-81.7546 0 -3.53035
7.57694 0 -2.27542
7.83186 0 12.9498
-6.17225 0 13.0892
3.56708 0 1.92431
-0.0691667 0 1.92672
-29.278 0 -2.85913
-1.56107 0 -10.2163
-15.1341 0 -6.14855
-31.4677 0 2.67888
-2.36093 0 -8.60846
9.32921 0 -12.7898
47.7981 0 29.893
-6.90743 0 -6.09756
-6.43498 0 -3.78271
53.2049 0 15.7029
14.5417 0 -1.38037
2.34763 0 -4.84273
6.75834 0 -0.842118
-40.7781 0 -3.88258
35.2464 0 -0.976848
-54.2911 0 -56.0185
-8.97317 0 1.05949
-4.09757 0 -2.95316
32.9353 0 42.924
5.85561 0 -2.89907
-43.7088 0 -28.4284
10.8769 0 3.25774
21.7633 0 15.2245
8.35576 0 -15.0676
-20.9468 0 3.58608
3.02868 0 -22.5293
2.65882 0 2.4898
8.04181 0 19.1865
-36.2101 0 -12.9075
-52.8323 0 -28.4275
28.7139 0 13
31.8172 0 -21.298
-6.2944 0 33.7737
16.2536 0 2.04493
-196.974 0 95.9242
-4.93898 0 12.7432
-21.2002 0 0.698634
27.0313 0 -54.3056
-16.004 0 2.32115
-8.00283 0 -18.4935
1.45764 0 -0.396972
4.33755 0 4.09043
9.30175 0 6.36285
3.68615 0 -4.75514
7.67683 0 1.00862
-8.98978 0 -0.991956
-2.60681 0 -2.04487
-35.5819 0 26.035
-6.95849 0 0.778666
-8.0034 0 16.2115
-37.8245 0 -1.39392
15.0956 0 -17.0788
-5.0952 0 -31.4708
-51.5239 0 19.2206
-34.3909 0 22.3722
80.8537 0 1.11954
10.5676 0 -5.65439
-23.5728 0 -6.61161
0.45138 0 -17.6177
-26.8525 0 -39.7653
-8.22713 0 -10.2264
-7.86371 0 13.0123
-23.2969 0 19.5811
2.50987 0 34.2226
13.5966 0 -23.5561
30.619 0 -82.9007
20.6265 0 -2.81341
-0.906552 0 -14.3279
28.3014 0 -4.89084
-7.06463 0 -20.1675
-3.64953 0 16.8349
4.7388 0 11.895
13.4158 0 -2.19063
67.3241 0 -147.009
-4.1559 0 12.6751
11.2985 0 -8.58126
-13.5152 0 10.6475
4.98499 0 9.0341
10.6145 0 15.3481
-8.75758 0 29.9029
106.522 0 -66.7972
7.2862 0 -4.57462
65.5679 0 -59.807
15.8307 0 -2.83772
5.62051 0 2.57813
-2.75884 0 -6.30862
6.77924 0 12.6883
-16.9404 0 8.64078
0.256092 0 -32.9676
-0.0978889 0 26.2379
39.1397 0 21.7102
61.4784 0 -38.1106
-48.4062 0 -1.46946
-27.4103 0 24.3559
37.7312 0 -28.1933
-20.2553 0 -25.4996
-2.095 0 22.3697
-20.3238 0 -7.89543
-4.74457 0 -6.94099
4.72887 0 19.0325
19.1598 0 10.4646
12.4304 0 9.32206
-42.389 0 -20.0335
-28.4529 0 -65.7166
10.2551 0 3.26744
38.1277 0 52.8151
7.86467 0 -73.0153
11.7079 0 12.1587
-29.4728 0 -6.3139
-18.3179 0 -14.4508
-0.497292 0 -4.48653
9.98055 0 -11.3283
36.0425 0 10.6197
56.3702 0 13.62
22.7434 0 1.06098
14.0953 0 26.208
4.03958 0 -29.4882
0.00498138 0 12.5767
24.4217 0 -5.43251
2.80257 0 17.7402
-17.5394 0 -29.1079
29.6927 0 28.3117
-107.117 0 -6.5977
-10.9076 0 7.63718
118.51 0 11.5437
-8.15435 0 52.97
-43.0028 0 -60.4414
21.3787 0 23.7116
-36.1244 0 0.540371
-5.22392 0 -14.3575
-15.7135 0 5.46191
-20.8163 0 7.38699
17.2709 0 -11.5556
1.52615 0 3.76436
1.73871 0 2.99514
8.52805 0 -16.4588
16.3877 0 12.132
-105.984 0 64.8016
-18.6101 0 12.7221
8.68467 0 -22.6274
15.3558 0 -28.4802
-14.5828 0 2.19644
5.63181 0 31.7803
49.1171 0 -1.04458
-1.73869 0 -6.7307
2.43242 0 -13.3684
-10.2817 0 -10.672
-6.20122 0 -8.27723
30.1437 0 -5.05916
11.3775 0 6.91056
-22.7448 0 13.9484
-4.40751 0 24.0094
-87.4286 0 -42.1025
103.85 0 4.15273
-19.4004 0 -6.93687
29.7011 0 18.7478
21.7102 0 34.8404
-31.6364 0 -20.8994
11.1768 0 -11.7578
-6.94024 0 4.02606
3.64317 0 -57.4957
-15.8748 0 5.42576
-61.2962 0 51.552
-20.6002 0 -61.5994
26.0997 0 45.5425
-13.0989 0 -2.30863
-10.5722 0 10.3872
-32.2417 0 -7.08154
-0.00751438 0 6.38611
16.6625 0 65.3803
38.5398 0 30.8507
0.444491 0 0.367771
-16.8293 0 -4.94361
-3.80191 0 -21.49
-5.5152 0 -0.347812
55.8016 0 -3.89699
-1.78242 0 6.79482
3.89351 0 12.9142
64.9134 0 -45.5194
1.13799 0 -6.85727
-4.19226 0 -5.80531
-4.92573 0 -18.9569
-2.37006 0 -1.80742
19.3121 0 18.8789
4.53587 0 -18.1673
39.4692 0 11.8249
-6.19579 0 17.7134
-31.9037 0 -40.0651
-55.4774 0 -18.6136
-0.85797 0 -11.8853
11.6604 0 2.10269
9.45566 0 -17.9109
-82.6887 0 123.241
0.920818 0 10.2048
8.13145 0 6.49672
-12.1202 0 54.4921
104.025 0 74.5893
-4.68655 0 -0.818501
-22.4113 0 6.36939
32.5368 0 1.10809
-19.7683 0 -16.9669
-77.1347 0 50.5078
-17.0771 0 -1.07746
-45.853 0 22.5936
7.63176 0 4.73651
14.9505 0 -2.20289
12.2342 0 -1.29721
2.13038 0 5.13653
-24.0562 0 -28.2194
-2.13126 0 4.05097
28.9779 0 -35.6152
12.3521 0 30.8573
15.5812 0 -11.7397
-26.6131 0 15.3148
-36.8096 0 -46.6286
2.69124 0 -16.356
71.3387 0 6.27683
2.367 0 -14.451
-4.15379 0 48.8126
-2.6545 0 8.88796
29.3374 0 -4.10506
10.5013 0 3.46541
14.5402 0 5.54567
48.6239 0 -32.8193
29.3463 0 69.3933
-31.4055 0 -24.8233
-12.4727 0 -10.0295
26.2789 0 55.6774
-36.3531 0 14.6395
-2.47057 0 -32.9426
-11.4193 0 -19.2859
-56.4113 0 9.30202
38.6488 0 -2.29495
-10.6242 0 -8.01558
-11.9221 0 -1.60059
36.1841 0 43.546
81.1905 0 53.0203
-0.947844 0 -2.05253
-11.4671 0 4.68207
11.4758 0 1.75661
-10.4998 0 18.2256
29.1591 0 3.97673
15.1254 0 -5.52816
-22.1648 0 -8.39789
1.03511 0 -1.65921
1.4552 0 19.1654
-4.14598 0 -10.3488
105.679 0 -4.05288
-8.87133 0 -1.35169
6.10149 0 8.37017
-0.389232 0 -37.3549
-5.9331 0 12.6985
22.9387 0 -51.9448
9.46902 0 1.51747
-77.4666 0 -129.537
2.00248 0 4.33334
-0.615027 0 27.6086
-6.18999 0 9.46247
-6.76765 0 15.4905
-1.65857 0 7.03392
6.06382 0 -6.81501
-14.1511 0 9.14978
-6.50131 0 -6.72659
-1.88861 0 9.22811
3.43348 0 13.5108
-11.495 0 1.22782
10.9443 0 5.66191
-5.21636 0 -77.008
34.022 0 -3.17992
-68.9033 0 34.8179
-74.4201 0 -8.54398
74.2113 0 22.7132
-3.92138 0 3.57892
16.6854 0 31.9194
-8.59535 0 -15.8421
-26.3931 0 13.3861
-19.1025 0 -2.11792
29.8175 0 -7.98068
-12.6024 0 5.00865
-29.8009 0 -57.4589
-8.64408 0 -27.3227
-2.51179 0 -62.1168
-70.5669 0 15.7977
-15.0273 0 6.27312
-10.5171 0 17.62
33.861 0 3.36617
36.3096 0 -3.78695
-4.9193 0 -67.6342
17.8338 0 3.66631
-1.78144 0 -2.28664
-30.5229 0 47.3135
16.7149 0 -0.802563
42.2089 0 -49.7771
9.63499 0 9.48776
19.8427 0 -39.8117
-40.3316 0 -45.9687
-1.72672 0 -11.6175
-55.8215 0 -138.186
-40.1691 0 -19.2338
-81.5008 0 -1.13663
-15.8798 0 1.1541
-1.46486 0 -6.69921
12.3883 0 -7.1147
-0.255981 0 31.0875
-25.9809 0 -17.4851
14.1225 0 -41.2764
-15.3595 0 3.38385
-0.103306 0 0.826584
2.35445 0 4.71265
-4.12047 0 6.43617
11.2787 0 31.3017
-10.8894 0 6.05312
28.495 0 -68.9603
9.14155 0 4.88039
-17.8985 0 -12.7167
-3.47674 0 24.2985
-28.6512 0 16.5137
-20.6031 0 5.00242
-8.6828 0 -8.55449
12.7469 0 -1.8433
-18.3396 0 -2.92492
5.91899 0 -18.3797
27.0394 0 1.36341
17.6681 0 -10.7136
63.2459 0 -71.8758
-4.54645 0 1.17129
56.0503 0 -82.8639
4.83432 0 15.4765
-58.6819 0 112.942
-0.455487 0 -1.65494
11.096 0 5.49114