# vtk DataFile Version 3.0
SiWiRVisFile
ASCII
DATASET UNSTRUCTURED_GRID
POINTS 1600 DOUBLE
78.9664 100 75.6851
79.9854 100 76.0416
80.971 100 76.4094
82.6326 100 75.9509
83.8153 100 76.2824
84.8805 100 76.5985
85.9496 100 76.7507
86.9212 100 76.939
87.9566 100 76.9598
89.0103 100 77.0635
90.1133 100 77.1697
91.1666 100 77.3427
92.182 100 76.8502
93.2719 100 76.6524
94.2777 100 76.167
95.4307 100 75.3815
96.5017 100 74.9188
97.5712 100 75.3032
98.8988 100 74.1789
100.102 100 74.7477
103.206 100 68.0957
103.153 100 70.2135
103.491 100 69.1929
104.576 100 69.1937
105.694 100 68.6561
106.778 100 68.387
108.36 100 68.697
109.57 100 68.4981
110.591 100 68.1339
111.623 100 67.2096
112.87 100 67.2096
113.901 100 68.1339
114.922 100 68.4981
116.133 100 68.697
117.714 100 68.387
118.798 100 68.6561
119.916 100 69.1937
121.002 100 69.1929
121.339 100 70.2135
121.286 100 68.0957
124.391 100 74.7477
125.594 100 74.1789
126.921 100 75.3032
127.991 100 74.9188
129.062 100 75.3815
130.215 100 76.167
131.22 100 76.6524
132.31 100 76.8502
133.326 100 77.3427
134.379 100 77.1697
135.482 100 77.0635
136.536 100 76.9598
137.571 100 76.939
138.543 100 76.7507
139.612 100 76.5985
140.677 100 76.2824
141.86 100 75.9509
143.521 100 76.4094
144.507 100 76.0416
145.526 100 75.6851
79.1593 100 76.8197
80.2323 100 77.1914
81.994 100 76.8513
83.0839 100 77.1267
84.1266 100 77.3454
85.3255 100 77.5918
86.3374 100 77.8034
87.3346 100 77.9044
88.355 100 78.0301
89.4599 100 78.0734
90.4679 100 78.3175
91.5831 100 78.3849
92.5407 100 77.8818
93.8817 100 77.6697
94.7797 100 77.0653
95.7167 100 76.4592
96.8037 100 76.1003
98.9777 100 75.5768
100.194 100 75.7879
101.132 100 75.1563
101.984 100 70.3801
101.703 100 73.7305
103.73 100 72.8558
106.528 100 71.3423
105.582 100 69.8427
106.669 100 69.6082
107.769 100 69.592
109.181 100 69.5136
110.542 100 69.2243
111.512 100 68.7964
112.98 100 68.7964
113.951 100 69.2243
115.312 100 69.5136
116.723 100 69.592
117.823 100 69.6082
118.911 100 69.8427
117.964 100 71.3423
120.763 100 72.8558
122.789 100 73.7305
122.508 100 70.3801
123.36 100 75.1563
124.299 100 75.7879
125.515 100 75.5768
127.689 100 76.1003
128.776 100 76.4592
129.713 100 77.0653
130.611 100 77.6697
131.952 100 77.8818
132.909 100 78.3849
134.025 100 78.3175
135.032 100 78.0734
136.137 100 78.0301
137.158 100 77.9044
138.155 100 77.8034
139.167 100 77.5918
140.366 100 77.3454
141.409 100 77.1267
142.498 100 76.8513
144.26 100 77.1914
145.333 100 76.8197
79.4082 100 77.9031
80.4121 100 78.3095
81.2671 100 77.6328
82.2949 100 77.9325
83.3403 100 78.2601
84.4788 100 78.3707
85.6328 100 78.6654
86.7122 100 78.787
87.8311 100 78.9286
88.9002 100 79.0164
90.0329 100 79.3019
91.0644 100 79.3254
92.1434 100 79.2896
93.1884 100 78.7948
94.633 100 78.3789
95.661 100 77.6927
96.6752 100 77.0906
98.0071 100 76.4229
99.171 100 76.6125
101.23 100 76.3063
102.249 100 74.8594
103.077 100 74.0368
104.511 100 74.4629
105.676 100 74.1179
107.129 100 73.8232
108.521 100 73.9924
109.393 100 74.7877
109.32 100 73.2816
110.639 100 71.0027
111.403 100 69.9407
113.089 100 69.9407
113.853 100 71.0027
115.173 100 73.2816
115.1 100 74.7877
115.971 100 73.9924
117.364 100 73.8232
118.817 100 74.1179
119.982 100 74.4629
121.415 100 74.0368
122.243 100 74.8594
123.262 100 76.3063
125.321 100 76.6125
126.485 100 76.4229
127.817 100 77.0906
128.831 100 77.6927
129.859 100 78.3789
131.304 100 78.7948
132.349 100 79.2896
133.428 100 79.3254
134.459 100 79.3019
135.592 100 79.0164
136.661 100 78.9286
137.78 100 78.787
138.86 100 78.6654
140.014 100 78.3707
141.152 100 78.2601
142.198 100 77.9325
143.225 100 77.6328
144.08 100 78.3095
145.084 100 77.9031
79.5337 100 79.0178
80.5659 100 79.4566
81.4463 100 78.7391
82.5575 100 79.2043
83.6552 100 79.4323
84.7879 100 79.4035
86.0428 100 79.6585
87.0919 100 79.7859
88.1274 100 80.0352
89.1523 100 80.0194
90.1139 100 80.4074
91.2311 100 80.4167
92.298 100 80.4762
93.1537 100 79.8473
94.2231 100 79.4455
95.4304 100 79.0954
96.4664 100 78.6012
97.3223 100 77.9626
98.3717 100 77.5326
99.5807 100 77.6278
100.708 100 77.1432
102.201 100 76.0337
103.667 100 75.0809
104.508 100 75.6389
105.729 100 75.3019
106.982 100 74.9719
108.411 100 75.1926
109.909 100 75.7096
110.744 100 73.6288
111.537 100 71.7281
112.955 100 71.7281
113.749 100 73.6288
114.583 100 75.7096
116.082 100 75.1926
117.511 100 74.9719
118.764 100 75.3019
119.984 100 75.6389
120.825 100 75.0809
122.291 100 76.0337
123.784 100 77.1432
124.912 100 77.6278
126.121 100 77.5326
127.17 100 77.9626
128.026 100 78.6012
129.062 100 79.0954
130.269 100 79.4455
131.339 100 79.8473
132.194 100 80.4762
133.261 100 80.4167
134.379 100 80.4074
135.34 100 80.0194
136.365 100 80.0352
137.401 100 79.7859
138.45 100 79.6585
139.704 100 79.4035
140.837 100 79.4323
141.935 100 79.2043
143.046 100 78.7391
143.927 100 79.4566
144.959 100 79.0178
79.7265 100 80.1776
80.8463 100 80.523
81.6799 100 79.8034
83.1717 100 80.4004
84.2735 100 80.355
85.3832 100 80.5381
86.4599 100 80.7322
87.491 100 80.9914
88.5624 100 81.0256
89.5788 100 81.3622
90.7101 100 81.3537
91.8909 100 81.478
92.9335 100 81.2572
94.1216 100 80.7279
95.0532 100 80.1124
96.1967 100 79.9743
97.1732 100 79.5491
97.9812 100 78.7805
99.1248 100 78.7203
100.445 100 78.301
101.797 100 77.1443
103.069 100 76.8542
104.023 100 76.5839
105.362 100 76.2973
106.472 100 76.3793
107.496 100 76.2407
108.633 100 76.5374
109.79 100 76.8587
110.751 100 75.0273
111.755 100 74.4309
112.737 100 74.4309
113.741 100 75.0273
114.702 100 76.8587
115.86 100 76.5374
116.997 100 76.2407
118.02 100 76.3793
119.131 100 76.2973
120.469 100 76.5839
121.423 100 76.8542
122.695 100 77.1443
124.048 100 78.301
125.368 100 78.7203
126.511 100 78.7805
127.319 100 79.5491
128.296 100 79.9743
129.439 100 80.1124
130.371 100 80.7279
131.559 100 81.2572
132.601 100 81.478
133.782 100 81.3537
134.914 100 81.3622
135.93 100 81.0256
137.001 100 80.9914
138.033 100 80.7322
139.109 100 80.5381
140.219 100 80.355
141.321 100 80.4004
142.813 100 79.8034
143.646 100 80.523
144.766 100 80.1776
79.9109 100 81.2537
80.9325 100 81.6543
81.8758 100 80.8826
82.7436 100 81.4409
83.712 100 81.2919
84.7926 100 81.3662
85.8859 100 81.6257
87.0689 100 81.893
88.1593 100 81.93
89.1176 100 82.3061
90.2141 100 82.2744
91.2889 100 82.3587
92.4396 100 82.5019
93.4168 100 82.1146
94.516 100 81.8157
95.4621 100 81.0347
96.6184 100 80.9793
97.5918 100 80.4709
98.4948 100 79.8357
100.051 100 79.3664
101.46 100 78.1836
102.499 100 77.9322
103.619 100 77.7373
104.684 100 77.6026
105.851 100 77.2553
106.882 100 77.3203
107.926 100 77.4032
108.955 100 77.7066
111.033 100 77.3345
111.25 100 76.0066
113.242 100 76.0066
113.459 100 77.3345
115.538 100 77.7066
116.566 100 77.4032
117.61 100 77.3203
118.641 100 77.2553
119.808 100 77.6026
120.873 100 77.7373
121.994 100 77.9322
123.033 100 78.1836
124.442 100 79.3664
125.998 100 79.8357
126.901 100 80.4709
127.874 100 80.9793
129.03 100 81.0347
129.976 100 81.8157
131.076 100 82.1146
132.053 100 82.5019
133.203 100 82.3587
134.278 100 82.2744
135.375 100 82.3061
136.333 100 81.93
137.424 100 81.893
138.606 100 81.6257
139.7 100 81.3662
140.78 100 81.2919
141.749 100 81.4409
142.617 100 80.8826
143.56 100 81.6543
144.581 100 81.2537
80.0069 100 82.3669
80.988 100 82.7838
81.9174 100 82.1419
82.8701 100 82.5938
84.1191 100 82.3688
85.2988 100 82.4746
86.4716 100 82.8237
87.4973 100 82.9817
88.5737 100 83.1724
89.7222 100 83.2588
90.7542 100 83.4249
91.8769 100 83.4293
93.0765 100 83.3576
94.2649 100 82.778
95.25 100 82.6253
96.0073 100 81.9467
97.5372 100 81.6551
98.5103 100 80.948
99.4994 100 80.3361
101.115 100 79.4085
102.221 100 78.9529
103.338 100 78.768
104.493 100 78.6582
105.665 100 78.3529
107.057 100 78.5079
108.247 100 78.5196
109.333 100 78.7578
110.118 100 77.8875
110.67 100 79.0703
111.76 100 78.3293
112.733 100 78.3293
113.822 100 79.0703
114.374 100 77.8875
115.159 100 78.7578
116.245 100 78.5196
117.436 100 78.5079
118.827 100 78.3529
119.999 100 78.6582
121.154 100 78.768
122.272 100 78.9529
123.377 100 79.4085
124.993 100 80.3361
125.982 100 80.948
126.955 100 81.6551
128.485 100 81.9467
129.242 100 82.6253
130.227 100 82.778
131.416 100 83.3576
132.616 100 83.4293
133.738 100 83.4249
134.77 100 83.2588
135.919 100 83.1724
136.995 100 82.9817
138.021 100 82.8237
139.194 100 82.4746
140.373 100 82.3688
141.622 100 82.5938
142.575 100 82.1419
143.504 100 82.7838
144.485 100 82.3669
80.0296 100 83.4358
81.1074 100 83.9666
81.9701 100 83.2113
82.8345 100 83.8095
83.6823 100 83.3115
84.7121 100 83.3485
85.7303 100 83.5781
86.7998 100 83.8623
87.8677 100 83.9729
88.8632 100 84.2645
90.1297 100 84.2873
91.1408 100 84.4794
92.1547 100 84.4742
93.1498 100 84.394
94.1538 100 84.0008
95.064 100 83.6269
96.871 100 82.444
98.619 100 82.0988
99.4782 100 81.4163
100.539 100 80.461
101.912 100 80.6063
103.251 100 79.8234
104.233 100 79.7057
105.345 100 79.6971
106.386 100 79.8676
107.405 100 79.7156
108.457 100 79.8558
109.6 100 79.8175
110.748 100 80.1878
111.738 100 79.586
112.754 100 79.586
113.745 100 80.1878
114.892 100 79.8175
116.035 100 79.8558
117.088 100 79.7156
118.106 100 79.8676
119.147 100 79.6971
120.259 100 79.7057
121.241 100 79.8234
122.58 100 80.6063
123.954 100 80.461
125.014 100 81.4163
125.873 100 82.0988
127.621 100 82.444
129.428 100 83.6269
130.339 100 84.0008
131.343 100 84.394
132.338 100 84.4742
133.352 100 84.4794
134.363 100 84.2873
135.629 100 84.2645
136.625 100 83.9729
137.693 100 83.8623
138.762 100 83.5781
139.78 100 83.3485
140.81 100 83.3115
141.658 100 83.8095
142.522 100 83.2113
143.385 100 83.9666
144.463 100 83.4358
80.2002 100 84.5366
81.1358 100 85.1472
82.0385 100 84.4722
83.1243 100 84.8419
84.1112 100 84.3185
85.0939 100 84.4887
86.268 100 84.7131
87.3016 100 84.8675
88.2874 100 85.1753
89.635 100 85.2737
90.6737 100 85.4341
91.7066 100 85.5142
92.7924 100 85.4662
93.9431 100 85.0499
94.8848 100 84.6217
95.9491 100 84.299
96.7516 100 83.625
97.7598 100 83.1518
99.7382 100 82.5996
100.517 100 81.7463
[...]
POINT_DATA 1600
SCALARS mass double
LOOKUP_TABLE default
1
1
1
1
1
1
1
1
1
1
1
1
1
1
1
1
1
1
1
1
1
1
1
1
1
1
1
1
1
1
1
1
1
1
1
1
1
1
1
1
1
1
1
1
1
1
1
1
1
1
1
1
1
1
1
1
1
1
1
1
1
1
1
1
1
1
1
1
1
1
1
1
1
1
1
1
1
1
1
1
1
1
1
1
1
1
1
1
1
1
1
1
1
1
1
1
1
1
1
1
1
1
1
1
1
1
1
1
1
1
1
1
1
1
1
1
1
1
1
1
1
1
1
1
1
1
1
1
1
1
1
1
1
1
1
1
1
1
1
1
1
1
1
1
1
1
1
1
1
1
1
1
1
1
1
1
1
1
1
1
1
1
1
1
1
1
1
1
1
1
1
1
1
1
1
1
1
1
1
1
1
1
1
1
1
1
1
1
1
1
1
1
1
1
1
1
1
1
1
1
1
1
1
1
1
1
1
1
1
1
1
1
1
1
1
1
1
1
1
1
1
1
1
1
1
1
1
1
1
1
1
1
1
1
1
1
1
1
1
1
1
1
1
1
1
1
1
1
1
1
1
1
1
1
1
1
1
1
1
1
1
1
1
1
1
1
1
1
1
1
1
1
1
1
1
1
1
1
1
1
1
1
1
1
1
1
1
1
1
1
1
1
1
1
1
1
1
1
1
1
1
1
1
1
1
1
1
1
1
1
1
1
1
1
1
1
1
1
1
1
1
1
1
1
1
1
1
1
1
1
1
1
1
1
1
1
1
1
1
1
1
1
1
1
1
1
1
1
1
1
1
1
1
1
1
1
1
1
1
1
1
1
1
1
1
1
1
1
1
1
1
1
1
1
1
1
1
1
1
1
1
1
1
1
1
1
1
1
1
1
1
1
1
1
1
1
1
1
1
1
1
1
1
1
1
1
1
1
1
1
1
1
1
1
1
1
1
1
1
1
1
1
1
1
1
1
1
1
1
1
1
1
1
1
1
1
1
1
1
1
1
1
1
1
1
1
1
1
1
1
1
1
1
1
1
1
1
1
1
1
1
1
1
1
1
1
1
1
1
1
1
1
1
1
1
1
1
1
1
1
1
1
1
1
1
1
1
1
1
1
1
1
1
1
1
1
1
1
1
1
1
1
1
1
1
1
1
1
1
1
1
1
1
1
1
1
1
1
1
1
1
1
1
1
1
1
1
1
1
1
1
1
1
1
1
1
1
1
1
1
1
1
1
1
1
1
1
1
1
1
1
1
1
1
1
1
1
1
1
1
1
1
1
1
1
1
1
1
1
1
1
1
1
1
1
1
1
1
1
1
1
1
1
1
1
1
1
1
1
1
1
1
1
1
1
1
1
1
1
1
1
1
1
1
1
1
1
1
1
1
1
1
1
1
1
1
1
1
1
1
1
1
1
1
1
1
1
1
1
1
1
1
1
1
1
1
1
1
1
1
1
1
1
1
1
1
1
1
1
1
1
1
1
1
1
1
1
1
1
1
1
1
1
1
1
1
1
1
1
1
1
1
1
1
1
1
1
1
1
1
1
1
1
1
1
1
1
1
1
1
1
1
1
1
1
1
1
1
1
1
1
1
1
1
1
1
1
1
1
1
1
1
1
1
1
1
1
1
1
1
1
1
1
1
1
1
1
1
1
1
1
1
1
1
1
1
1
1
1
1
1
1
1
1
1
1
1
1
1
1
1
1
1
1
1
1
1
1
1
1
1
1
1
1
1
1
1
1
1
1
1
1
1
1
1
1
1
1
1
1
1
1
1
1
1
1
1
1
1
1
1
1
1
1
1
1
1
1
1
1
1
1
1
1
1
1
1
1
1
1
1
1
1
1
1
1
1
1
1
1
1
1
1
1
1
1
1
1
1
1
1
1
1
1
1
1
1
1
1
1
1
1
1
1
1
1
1
1
1
1
1
1
1
1
1
1
1
1
1
1
1
1
1
1
1
1
1
1
1
1
1
1
1
1
1
1
1
1
1
1
1
1
1
1
1
1
1
1
1
1
1
1
1
1
1
1
1
1
1
1
1
1
1
1
1
1
1
1
1
1
1
1
1
1
1
1
1
1
1
1
1
1
1
1
1
1
1
1
1
1
1
1
1
1
1
1
1
1
1
1
1
1
1
1
1
1
1
1
1
1
1
1
1
1
1
1
1
1
1
1
1
1
1
1
1
1
1
1
1
1
1
1
1
1
1
1
1
1
1
1
1
1
1
1
1
1
1
1
1
1
1
1
1
1
1
1
1
1
1
1
1
1
1
1
1
1
1
1
1
1
1
1
1
1
1
1
1
1
1
1
1
1
1
1
1
1
1
1
1
1
1
1
1
1
1
1
1
1
1
1
1
1
1
1
1
1
1
1
1
1
1
1
1
1
1
1
1
1
1
1
1
1
1
1
1
1
1
1
1
1
1
1
1
1
1
1
1
1
1
1
1
1
1
1
1
1
1
1
1
1
1
1
1
1
1
1
1
1
1
1
1
1
1
1
1
1
1
1
1
1
1
1
1
1
1
1
1
1
1
1
1
1
1
1
1
1
1
1
1
1
1
1
1
1
1
1
1
1
1
1
1
1
1
1
1
1
1
1
1
1
1
1
1
1
1
1
1
1
1
1
1
1
1
1
1
1
1
1
1
1
1
1
1
1
1
1
1
1
1
1
1
1
1
1
1
1
1
1
1
1
1
1
1
1
1
1
1
1
1
1
1
1
1
1
1
1
1
1
1
1
1
1
1
1
1
1
1
1
1
1
1
1
1
1
1
1
1
1
1
1
1
1
1
1
1
1
1
1
1
1
1
1
1
1
1
1
1
1
1
1
1
1
1
1
1
1
1
1
1
1
1
1
1
1
1
1
1
1
1
1
1
1
1
1
1
1
1
1
1
1
1
1
1
1
1
1
1
1
1
1
1
1
1
1
1
1
1
1
1
1
1
1
1
1
1
1
1
1
1
1
1
1
1
1
1
1
1
1
1
1
1
1
1
1
1
1
1
1
1
1
1
1
1
1
1
1
1
1
1
1
1
1
1
1
1
1
1
1
1
1
1
1
1
1
1
1
1
1
1
1
1
1
1
1
1
1
1
1
1
1
1
1
1
1
1
1
1
1
1
1
1
1
1
1
1
1
1
1
1
1
1
1
1
1
1
1
1
1
1
1
1
1
1
1
1
1
1
1
1
1
1
1
1
1
1
1
1
1
1
1
1
1
1
1
1
1
1
1
1
1
1
1
1
1
1
1
1
1
1
1
1
1
1
1
1
1
1
1
1
1
1
1
1
1
1
1
1
1
1
1
1
1
1
1
1
1
1
1
1
1
1
1
1
1
1
1
1
1
1
1
1
1
1
1
1
1
1
1
1
1
1
1
1
1
1
1
1
1
1
1
1
1
1
1
1
1
1
1
1
1
1
1
1
1
1
1
1
1
1
1
1
1
1
1
1
1
1
1
1
1
1
1
1
1
1
1
1
1
1
1
1
1
1
1
1
1
1
1
1
1
1
1
1
1
1
1
1
1
1
1
1
1
1
1
1
1
1
1
1
1
1
1
1
1
1
1
1
1
1
1
1
1
1
1
1
1
1
1
1
1
1
1
1
1
1
1
1
1
1
1
VECTORS force double
-15.1401 0 1.40406
-19.6252 0 5.657
53.1355 0 11.1884
17.4773 0 11.9348
-15.5431 0 -7.5334
1.98473 0 -32.3675
-98.0144 0 -57.7209
94.5291 0 -48.5238
24.4353 0 7.43175
21.0272 0 7.79122
-17.1005 0 7.27855
25.9953 0 17.1028
-10.3164 0 -4.78749
8.94174 0 17.5375
-19.0431 0 -57.0445
4.68391 0 3.94109
-2.15717 0 18.966
12.7239 0 7.11617
8.70651 0 15.3925
-22.4814 0 -47.8152
2.39218 0 4.71395
-14.4277 0 19.8073
-9.08285 0 -22.3096
32.2931 0 0.668323
-6.77616 0 23.044
6.11916 0 16.7978
25.7166 0 -16.3477
-11.723 0 1.8573
24.5322 0 -19.6624
5.41547 0 10.9823
-5.41547 0 10.9823
-24.5322 0 -19.6624
11.723 0 1.8573
-25.7166 0 -16.3477
-6.11916 0 16.7978
6.77616 0 23.044
-32.2931 0 0.668323
9.08285 0 -22.3096
14.4277 0 19.8073
-2.39218 0 4.71395
22.4814 0 -47.8152
-8.70651 0 15.3925
-12.7239 0 7.11617
2.15717 0 18.966
-4.68391 0 3.94109
19.0431 0 -57.0445
-8.94174 0 17.5375
10.3164 0 -4.78749
-25.9953 0 17.1028
17.1005 0 7.27855
-21.0272 0 7.79122
-24.4353 0 7.43175
-94.5291 0 -48.5238
98.0144 0 -57.7209
-1.98473 0 -32.3675
15.5431 0 -7.5334
-17.4773 0 11.9348
-53.1355 0 11.1884
19.6252 0 5.657
15.1401 0 1.40406
6.22965 0 -9.48361
-6.52111 0 0.351465
16.7697 0 -11.1545
-32.045 0 -5.15833
5.58138 0 30.0528
-94.9614 0 37.5362
-93.8055 0 4.78259
75.0765 0 29.8353
90.736 0 -46.5453
-40.2527 0 -4.09774
67.1845 0 -15.745
-16.4782 0 -36.8422
24.3871 0 -0.227542
-76.4199 0 -33.6924
27.8017 0 49.2728
6.51835 0 12.2558
12.1139 0 -124.754
-4.42065 0 -41.4306
-4.41861 0 62.2362
18.0955 0 10.2054
10.6814 0 -2.13365
10.8872 0 18.164
-4.19974 0 11.3275
-0.57498 0 -4.479
-9.44475 0 -15.32
-10.1734 0 -17.3326
-0.585523 0 15.3721
-7.89956 0 6.22508
-47.8697 0 20.7622
33.365 0 -12.5316
-33.365 0 -12.5316
47.8697 0 20.7622
7.89956 0 6.22508
0.585524 0 15.3721
10.1734 0 -17.3326
9.44475 0 -15.32
0.57498 0 -4.479
4.19974 0 11.3275
-10.8872 0 18.164
-10.6814 0 -2.13365
-18.0955 0 10.2054
4.41861 0 62.2362
4.42065 0 -41.4306
-12.1139 0 -124.754
-6.51835 0 12.2558
-27.8017 0 49.2728
76.4199 0 -33.6924
-24.3871 0 -0.227544
16.4782 0 -36.8422
-67.1845 0 -15.745
40.2527 0 -4.09774
-90.736 0 -46.5453
-75.0765 0 29.8353
93.8055 0 4.78259
94.9614 0 37.5362
-5.58138 0 30.0528
32.045 0 -5.15833
-16.7697 0 -11.1545
6.52111 0 0.351465
-6.22965 0 -9.48361
-21.2699 0 5.02494
5.82694 0 18.655
-35.7253 0 -6.08476
10.612 0 19.7752
15.6434 0 7.46448
3.63933 0 0.593313
-32.841 0 -20.554
16.0136 0 21.2703
-51.7937 0 47.1945
5.4261 0 -38.8826
-84.1941 0 5.63767
25.6312 0 13.8961
44.1624 0 34.2496
13.0672 0 -39.4224
32.5791 0 17.1389
20.1749 0 15.692
-32.3532 0 114.199
-0.807971 0 -5.87362
-1.88733 0 29.8901
-75.9127 0 -192.678
-0.192204 0 -1.80632
1.68073 0 7.94074
47.1665 0 -19.9006
-2.16201 0 16.4173
2.24852 0 11.3279
-21.8215 0 35.3213
13.6579 0 -52.6626
25.4632 0 -8.71277
11.4532 0 -7.3108
-2.37054 0 3.64606
2.37054 0 3.64606
-11.4532 0 -7.3108
-25.4631 0 -8.71272
-13.6578 0 -52.6626
21.8214 0 35.3213
-2.24852 0 11.3279
2.16201 0 16.4173
-47.1665 0 -19.9006
-1.68073 0 7.94074
0.192203 0 -1.80632
75.9127 0 -192.678
1.88732 0 29.8901
0.80797 0 -5.87362
32.3532 0 114.199
-20.1749 0 15.692
-32.5791 0 17.1389
-13.0672 0 -39.4224
-44.1624 0 34.2496
-25.6312 0 13.8961
84.1941 0 5.63767
-5.42609 0 -38.8826
51.7937 0 47.1945
-16.0136 0 21.2703
32.841 0 -20.554
-3.63933 0 0.593313
-15.6434 0 7.46448
-10.612 0 19.7752
35.7253 0 -6.08476
-5.82694 0 18.655
21.2699 0 5.02494
5.37635 0 7.71223
13.4471 0 -16.9362
11.4356 0 -11.583
23.55 0 -31.7064
11.4987 0 -36.2554
26.8431 0 15.5887
-35.8645 0 19.4635
19.6819 0 33.3041
-50.9393 0 -16.6853
34.4274 0 47.231
57.3636 0 11.6438
-3.6721 0 -11.6926
-61.6001 0 -89.1807
28.9641 0 29.9756
-24.6956 0 -19.8837
24.1789 0 1.61991
-25.4956 0 21.6335
5.14649 0 -36.948
12.6877 0 1.58719
-7.86246 0 7.51652
-105.428 0 147.174
97.1892 0 -24.7196
-133.756 0 -31.8574
93.7761 0 5.13901
11.6013 0 -32.9343
-3.94232 0 8.32677
-35.1756 0 16.0086
5.1107 0 52.1029
1.3652 0 15.4249
2.54287 0 -5.76328
-2.54286 0 -5.76329
-1.36519 0 15.4249
-5.11066 0 52.1029
35.1756 0 16.0086
3.94232 0 8.32678
-11.6013 0 -32.9342
-93.7761 0 5.13897
133.756 0 -31.8574
-97.1892 0 -24.7196
105.428 0 147.174
7.86246 0 7.51652
-12.6877 0 1.58719
-5.14649 0 -36.948
25.4956 0 21.6335
-24.1789 0 1.61991
24.6956 0 -19.8837
-28.9641 0 29.9756
61.6001 0 -89.1807
3.6721 0 -11.6926
-57.3636 0 11.6438
-34.4274 0 47.231
50.9393 0 -16.6853
-19.6819 0 33.3041
35.8645 0 19.4635
-26.8431 0 15.5887
-11.4987 0 -36.2554
-23.55 0 -31.7064
-11.4356 0 -11.583
-13.4471 0 -16.9362
-5.37635 0 7.71223
3.80021 0 -14.8135
-30.6813 0 13.7331
-23.6298 0 14.3106
-54.8436 0 -33.3711
9.47769 0 11.4632
32.7849 0 -66.1161
3.081 0 -31.3522
62.8296 0 -121.888
73.9558 0 -123.038
30.175 0 -28.8186
23.0196 0 -11.8083
-30.1482 0 -3.08498
23.5296 0 -65.8563
-10.6177 0 -0.522657
-15.8352 0 -61.1424
-42.4204 0 -2.32012
-13.3034 0 -100.467
35.7279 0 29.8458
-1.33757 0 -4.48711
-69.0053 0 19.5658
59.3001 0 31.3891
-185.029 0 -0.905608
130.776 0 4.29087
-18.9945 0 30.489
-77.2717 0 -87.4254
69.7419 0 1.34462
7.7862 0 -0.814449
-12.5473 0 -17.2763
6.73492 0 -31.4759
-182.865 0 0.966188
182.865 0 0.966176
-6.73503 0 -31.4759
12.5473 0 -17.2763
-7.78622 0 -0.814471
-69.7419 0 1.3446
77.2715 0 -87.4252
18.9945 0 30.4889
-130.776 0 4.29088
185.029 0 -0.905549
-59.3001 0 31.3891
69.0053 0 19.5658
1.33757 0 -4.48711
-35.7279 0 29.8458
13.3034 0 -100.467
42.4204 0 -2.32012
15.8352 0 -61.1424
10.6177 0 -0.522659
-23.5296 0 -65.8563
30.1482 0 -3.08498
-23.0196 0 -11.8083
-30.175 0 -28.8186
-73.9558 0 -123.038
-62.8296 0 -121.888
-3.081 0 -31.3522
-32.7849 0 -66.1161
-9.4777 0 11.4632
54.8436 0 -33.3711
23.6298 0 14.3106
30.6813 0 13.7331
-3.80021 0 -14.8135
4.27242 0 0.272391
5.19644 0 -3.27633
-39.8447 0 -5.71124
-104.653 0 58.5145
176.748 0 33.9619
-36.1426 0 86.9201
30.6322 0 -24.0412
-76.3271 0 109.19
-111.055 0 120.86
71.8311 0 -8.33685
-21.5755 0 44.7918
7.58234 0 37.7509
-53.4966 0 -36.0819
101.365 0 118.213
32.4467 0 -151.183
21.2557 0 65.1093
-6.93243 0 23.3693
-15.2475 0 65.8491
0.651344 0 -26.7177
-26.0392 0 1.72989
27.4719 0 -2.96313
73.9776 0 -16.3633
19.1337 0 21.418
40.7138 0 -36.7361
-74.8794 0 33.6092
50.7153 0 68.0994
14.2034 0 0.133393
47.8789 0 -26.6153
20.0148 0 -15.088
-7.47825 0 13.5053
7.47829 0 13.5052
-20.0148 0 -15.088
-47.8788 0 -26.6152
-14.2034 0 0.133399
-50.7154 0 68.0992
74.8796 0 33.6092
-40.7138 0 -36.7361
-19.1337 0 21.4179
-73.9776 0 -16.3633
-27.4719 0 -2.96314
26.0392 0 1.72988
-0.651347 0 -26.7178
15.2476 0 65.849
6.93243 0 23.3693
-21.2557 0 65.1093
-32.4467 0 -151.183
-101.365 0 118.213
53.4966 0 -36.0819
-7.58234 0 37.7509
21.5755 0 44.7918
-71.8311 0 -8.33685
111.055 0 120.86
76.3271 0 109.19
-30.6322 0 -24.0412
36.1426 0 86.9201
-176.748 0 33.9619
104.653 0 58.5145
39.8447 0 -5.71124
-5.19644 0 -3.27633
-4.27242 0 0.272391
-16.3759 0 -39.9563
1.53368 0 12.5166
-42.1147 0 -36.4965
43.7732 0 -2.61949
26.2331 0 -57.9873
-13.877 0 20.1579
-52.4808 0 -52.0212
36.0454 0 -43.0233
-8.5443 0 38.5419
-64.5559 0 0.113165
64.2036 0 -35.0313
-11.691 0 -3.5758
20.612 0 -35.1633
-149.472 0 183.398
87.7871 0 -35.4536
-30.1477 0 -99.5329
51.6187 0 -57.8936
31.1528 0 30.2153
-52.5889 0 -18.4948
33.7897 0 -8.93304
2.25356 0 55.497
1.96286 0 -10.0572
0.133849 0 1.98034
-11.5852 0 7.73959
6.26182 0 -2.77644
-30.4156 0 20.4491
10.5249 0 -7.26895
-26.2112 0 46.7547
-4.42876 0 -8.23952
-211.565 0 10.5475
211.565 0 10.5473
4.42876 0 -8.23941
26.2111 0 46.7547
-10.5249 0 -7.26889
30.4154 0 20.449
-6.26181 0 -2.77642
11.5852 0 7.7396
-0.133867 0 1.98031
-1.96283 0 -10.0571
-2.25358 0 55.497
-33.7897 0 -8.93304
52.5889 0 -18.4947
-31.1528 0 30.2153
-51.6187 0 -57.8936
30.1478 0 -99.5329
-87.7871 0 -35.4536
149.472 0 183.398
-20.612 0 -35.1633
11.691 0 -3.5758
-64.2036 0 -35.0313
64.5559 0 0.113165
8.5443 0 38.5419
-36.0454 0 -43.0233
52.4808 0 -52.0212
13.877 0 20.1579
-26.2331 0 -57.9873
-43.7732 0 -2.61949
42.1147 0 -36.4965
-1.53368 0 12.5166
16.3759 0 -39.9563
18.8779 0 23.254
-12.7682 0 -37.4882
-22.43 0 32.396
-62.5268 0 38.7258
60.0636 0 -32.9401
-5.20304 0 33.7949
20.7431 0 32.6089
46.4469 0 -83.8604
-17.1775 0 20.1304
87.0032 0 -0.844248
-84.203 0 20.3918
-2.87576 0 -13.741
-20.8695 0 32.1551
55.4658 0 9.34818
-326.538 0 -151.489
144.404 0 -82.9897
70.0004 0 118.466
-11.6367 0 13.6021
19.7716 0 23.837
48.093 0 2.82335
-5.53715 0 -11.1811
-158.004 0 52.6567
131.013 0 0.918655
-39.3788 0 -23.6473
-46.213 0 -55.1086
31.3957 0 -17.9183
66.9986 0 -36.5812
-27.1176 0 -104.834
65.0533 0 -51.9575
-100.136 0 -1.22515
100.136 0 -1.22523
-65.0529 0 -51.9572
27.1174 0 -104.834
-66.9987 0 -36.5811
-31.3956 0 -17.9183
46.2129 0 -55.1085
39.3789 0 -23.6474
-131.013 0 0.918662
158.004 0 52.6566
5.53714 0 -11.1811
-48.093 0 2.82336
-19.7716 0 23.837
11.6367 0 13.6021
-70.0005 0 118.466
-144.404 0 -82.9897
326.538 0 -151.489
-55.4658 0 9.34817
20.8695 0 32.1551
2.87576 0 -13.741
84.203 0 20.3918
-87.0032 0 -0.844249
17.1775 0 20.1304
-46.4469 0 -83.8604
-20.7431 0 32.6089
5.20304 0 33.7949
-60.0636 0 -32.9401
62.5268 0 38.7258
22.43 0 32.396
12.7682 0 -37.4882
-18.8779 0 23.254
-17.7976 0 1.31555
46.3928 0 -50.6155
-11.7919 0 45.8534
-19.9275 0 -154.423
-123.657 0 -19.1531
103.723 0 -22.9644
-111.803 0 79.7917
-32.5391 0 21.0454
53.5551 0 44.2847
-80.613 0 -85.7778
14.4215 0 -92.6229
-7.50685 0 -102.626
-68.3444 0 -136.674
-40.117 0 65.9016
139.991 0 157.491
-15.8974 0 31.3959
31.3513 0 -30.0548
-241.894 0 -74.322
-4.72036 0 -0.338241
1.34255 0 -12.6114
0.630744 0 -12.6906
17.8232 0 -1.51179
-11.9209 0 -19.5267
-9.36524 0 33.5203
-118.367 0 -33.2131
64.04 0 -72.5052
-14.8893 0 27.2731
-0.287218 0 17.0092
-25.1459 0 97.2988
26.6031 0 -59.5058
-26.6039 0 -59.5063
25.1465 0 97.2993
0.287252 0 17.0079
14.8894 0 27.2729
-64.0405 0 -72.5052
118.367 0 -33.2134
9.36518 0 33.5203
11.9209 0 -19.5267
-17.8232 0 -1.51177
-0.630741 0 -12.6906
-1.34254 0 -12.6114
4.72036 0 -0.338243
241.894 0 -74.322
-31.3513 0 -30.0548
15.8974 0 31.3959
-139.991 0 157.491
40.117 0 65.9016
68.3444 0 -136.674
7.50685 0 -102.626
-14.4215 0 -92.6228
80.613 0 -85.7778
-53.5551 0 44.2847
32.5391 0 21.0454
111.803 0 79.7917
-103.723 0 -22.9644
123.657 0 -19.1532
19.9275 0 -154.423
11.7919 0 45.8534
-46.3928 0 -50.6155
17.7976 0 1.31555
-33.7141 0 33.6429
13.9838 0 2.24297
-27.0357 0 -3.23845
36.8845 0 155.918
32.0956 0 -6.73021
-20.9005 0 3.98744
-7.85938 0 14.0316
34.8904 0 -5.6348
-76.4668 0 7.1121
37.9153 0 -74.5913
-30.5053 0 149.529
36.8539 0 0.0149798
56.3336 0 93.7765
69.6663 0 59.7258
-13.8256 0 11.7279
15.8919 0 -12.4668
-8.00351 0 -103.084
-39.3829 0 -64.1688
252.93 0 27.355
27.9152 0 -65.5179
67.5316 0 -102.666
-8.19114 0 -8.26242
4.18958 0 -5.34014
-5.05062 0 -34.3304
-23.0395 0 2.91485
10.8984 0 189.558
14.2799 0 -2.73135
-17.1609 0 80.0401
-8.13046 0 -8.14775
7.7815 0 -19.0048
-7.78154 0 -19.0046
8.13108 0 -8.14748
17.1609 0 80.0404
-14.2797 0 -2.73127
-10.8986 0 189.558
23.0395 0 2.91481
5.05063 0 -34.3304
-4.18957 0 -5.34014
8.19114 0 -8.2625
-67.5316 0 -102.666
-27.9153 0 -65.5179
-252.93 0 27.355
39.3829 0 -64.1688
8.00351 0 -103.084
-15.8919 0 -12.4668
13.8256 0 11.7279
-69.6663 0 59.7258
-56.3336 0 93.7765
-36.8539 0 0.0149776
30.5053 0 149.529
-37.9152 0 -74.5913
76.4668 0 7.1121
-34.8904 0 -5.6348
7.85938 0 14.0316
20.9005 0 3.98744
-32.0956 0 -6.73021
-36.8845 0 155.918
27.0357 0 -3.23844
-13.9838 0 2.24297
33.7141 0 33.6429
13.3131 0 9.74497
-6.22048 0 24.6371
52.7421 0 -96.1558
-6.39084 0 34.9783
10.2934 0 12.1368
-61.8349 0 1.24315
14.5594 0 43.3514
17.1687 0 -5.01319
-29.809 0 -105.382
-41.3683 0 -7.62328
15.4225 0 0.603963
68.2242 0 -15.9825
-5.29145 0 -217.779
132.999 0 34.494
16.093 0 -7.88109
13.5226 0 53.8251
47.0454 0 91.8905
7.79096 0 114.126
78.3294 0 58.1342
-64.0084 0 33.5143
-55.7802 0 47.7746
-15.2915 0 12.5416
-14.1349 0 51.1077
47.847 0 -19.1817
-54.0086 0 -16.7638
-155.709 0 -74.0961
151.044 0 -121.606
-1.65489 0 11.3407
3.41652 0 -56.1587
11.7944 0 -21.4358
-11.7946 0 -21.4355
-3.41615 0 -56.162
1.65458 0 11.341
-151.044 0 -121.606
155.71 0 -74.0961
54.0087 0 -16.7639
-47.847 0 -19.1817
14.1349 0 51.1077
15.2916 0 12.5416
55.7802 0 47.7746
64.0084 0 33.5143
-78.3294 0 58.1342
-7.79097 0 114.126
-47.0454 0 91.8905
-13.5226 0 53.825
-16.093 0 -7.88109
-132.999 0 34.494
5.29145 0 -217.779
-68.2242 0 -15.9825
-15.4225 0 0.603965
41.3683 0 -7.62328
29.809 0 -105.382
-17.1687 0 -5.01319
-14.5594 0 43.3514
61.8349 0 1.24315
-10.2934 0 12.1368
6.39084 0 34.9783
-52.7421 0 -96.1558
6.22048 0 24.6371
-13.3131 0 9.74497
4.09835 0 -1.12292
-42.1525 0 12.7478
-6.02244 0 94.6674
-11.1014 0 6.0797
-2.24742 0 -36.2985
1.53364 0 -20.0954
-88.067 0 -68.6105
107.954 0 -43.7467
-74.7022 0 95.1627
52.2228 0 86.9992
-25.9863 0 -96.8208
-52.8092 0 31.2905
-130.748 0 209.072
-12.5962 0 -59.587
-23.5952 0 34.7624
-41.7399 0 -64.5679
-112.624 0 -108.717
-18.1722 0 -69.3429
-77.2847 0 -45.2568
28.1185 0 -10.6062
-71.7293 0 -79.6413
94.3915 0 57.3588
0.490917 0 -132.556
-16.6241 0 -0.258487
-80.3257 0 -137.556
-31.6523 0 45.8185
56.926 0 111.076
29.9063 0 38.776
-26.5839 0 -58.9165
22.7916 0 39.2096
-22.7911 0 39.2097
26.5843 0 -58.9157
-29.907 0 38.7772
-56.9259 0 111.076
31.6523 0 45.8185
80.3257 0 -137.556
16.6242 0 -0.258455
-0.49091 0 -132.556
-94.3915 0 57.3589
71.7292 0 -79.6413
-28.1186 0 -10.6062
77.2847 0 -45.2567
18.1722 0 -69.3429
112.624 0 -108.717
41.7399 0 -64.5679
23.5952 0 34.7624
12.5962 0 -59.587
130.748 0 209.072
52.8092 0 31.2905
25.9863 0 -96.8208
-52.2228 0 86.9992
74.7022 0 95.1627
-107.954 0 -43.7467
88.067 0 -68.6105
-1.53364 0 -20.0954
2.24742 0 -36.2985
11.1014 0 6.0797
6.02244 0 94.6674
42.1525 0 12.7478
-4.09835 0 -1.12292
11.9956 0 -18.3684
10.0681 0 22.4427
-19.0488 0 -28.9935
-39.1636 0 9.19793
-72.3731 0 -20.0387
11.3251 0 42.7198
32.1774 0 65.8147
25.9534 0 41.5136
-15.5857 0 -6.27939
7.32484 0 -3.82461
16.7155 0 8.60016
-120.194 0 66.595
179.968 0 -49.4687
-17.2156 0 24.9881
17.4125 0 26.5591
8.06332 0 -74.3819
107.1 0 72.829
93.0879 0 124.931
-75.1498 0 69.9639
202.935 0 -197.246
49.5045 0 -10.3102
-10.8938 0 -16.3306
-72.9074 0 128.206
57.148 0 -60.5606
30.0244 0 -25.5832
175.557 0 14.0885
-18.329 0 6.02286
97.277 0 10.5531
-23.4813 0 78.4903
-3.08936 0 -25.2616
3.08918 0 -25.2608
23.4799 0 78.4923
-97.2773 0 10.5527
18.3293 0 6.02286
-175.557 0 14.0883
-30.0253 0 -25.5834
-57.1479 0 -60.5607
72.9074 0 128.206
10.8938 0 -16.3306
-49.5044 0 -10.3101
-202.935 0 -197.246
75.1497 0 69.9639
-93.0879 0 124.931
-107.1 0 72.829
-8.06332 0 -74.3819
-17.4125 0 26.5591
17.2156 0 24.9881
-179.968 0 -49.4687
120.194 0 66.595
-16.7155 0 8.60016
-7.32484 0 -3.82462
15.5857 0 -6.27939
-25.9534 0 41.5136
-32.1774 0 65.8147
-11.3251 0 42.7198
72.3731 0 -20.0387
39.1636 0 9.19793
19.0488 0 -28.9935
-10.0681 0 22.4427
-11.9956 0 -18.3684
-19.7685 0 27.7419
5.28863 0 -42.5669
27.0919 0 17.8404
-96.6834 0 34.2059
77.0539 0 -19.3865
24.1344 0 26.1696
-9.22637 0 -70.8554
21.315 0 -38.4717
3.05802 0 5.0135
-31.1469 0 -6.47288
-34.6003 0 -36.6086
-9.24732 0 48.3393
17.9461 0 1.10116
24.9443 0 59.7813
-42.3836 0 77.0215
16.2766 0 -3.04727
162.27 0 -254.373
-55.7661 0 -4.65565
19.1219 0 -37.1835
-91.9244 0 218.789
-63.4313 0 5.25958
-331.761 0 -22.5641
317.283 0 -43.1497
-8.51416 0 12.8662
-135.866 0 138.086
-234.25 0 8.37837
132.08 0 50.1819
43.2464 0 -13.2652
-100.176 0 24.4381
113.578 0 53.6565
-113.572 0 53.6543
100.171 0 24.4394
-43.2456 0 -13.265
-132.08 0 50.1817
234.25 0 8.3784
135.866 0 138.086
8.51407 0 12.8663
-317.283 0 -43.1498
331.761 0 -22.5643
63.4313 0 5.25954
91.9245 0 218.789
-19.1219 0 -37.1835
55.7661 0 -4.65566
-162.27 0 -254.374
-16.2766 0 -3.04726
42.3836 0 77.0215
-24.9443 0 59.7813
-17.9461 0 1.10116
9.24732 0 48.3393
34.6003 0 -36.6086
31.1469 0 -6.47288
-3.05802 0 5.0135
-21.315 0 -38.4717
9.22636 0 -70.8554
-24.1344 0 26.1696
-77.0539 0 -19.3865
96.6834 0 34.2059
-27.0919 0 17.8404
-5.28863 0 -42.5669
19.7685 0 27.7419
-2.03993 0 14.1962
11.0152 0 -9.87775
73.9269 0 -19.5811
29.4555 0 7.44488
-28.9619 0 -35.6122
-49.6458 0 7.40713
38.8749 0 -8.74716
51.1487 0 81.3042
18.3706 0 3.41392
-2.78903 0 -5.30165
12.0969 0 48.1466
-10.2275 0 56.9105
-128.613 0 2.80886
138.176 0 -24.6511
-115.747 0 92.4229
88.5931 0 -186.104
-262.559 0 287.724
-0.790262 0 -21.4517
112.837 0 4.66642
2.09215 0 6.31539
36.5944 0 58.8265
81.2104 0 2.90497
4.31732 0 -22.8928
-30.5895 0 43.2769
47.7207 0 -60.3301
-36.2962 0 -115.846
8.59613 0 20.9785
-12.8077 0 -3.25816
29.3814 0 -116.11
-14.2961 0 -46.9867
14.2955 0 -46.9852
-29.3812 0 -116.109
12.8075 0 -3.25808
-8.59601 0 20.9787
36.2954 0 -115.846
-47.7196 0 -60.3301
30.5888 0 43.2773
-4.31745 0 -22.8928
-81.2105 0 2.9053
-36.5944 0 58.8264
-2.09215 0 6.31539
-112.837 0 4.66646
0.79029 0 -21.4517
262.559 0 287.724
-88.5931 0 -186.104
115.747 0 92.4229
-138.176 0 -24.6511