# vtk DataFile Version 3.0
SiWiRVisFile
ASCII
DATASET UNSTRUCTURED_GRID
POINTS 1600 DOUBLE
79.1951 100 76.2348
80.301 100 76.349
81.4159 100 76.3273
82.5318 100 76.324
83.6461 100 76.3206
84.7567 100 76.3177
85.8695 100 76.3161
86.9891 100 76.3156
88.1124 100 76.3152
89.2356 100 76.3151
90.3582 100 76.3151
91.4807 100 76.3151
92.6031 100 76.3151
93.7256 100 76.3151
94.848 100 76.3151
95.9705 100 76.3151
97.093 100 76.3151
98.2154 100 76.3151
99.3379 100 76.3151
100.46 100 76.3151
101.583 100 76.3151
102.705 100 76.3151
103.828 100 76.3151
104.95 100 76.3151
106.073 100 76.3151
107.195 100 76.3151
108.318 100 76.3151
109.44 100 76.3151
110.563 100 76.3151
111.685 100 76.3151
112.807 100 76.3151
113.93 100 76.3151
115.052 100 76.3151
116.175 100 76.3151
117.297 100 76.3151
118.42 100 76.3151
119.542 100 76.3151
120.665 100 76.3151
121.787 100 76.3151
122.91 100 76.3151
124.032 100 76.3151
125.155 100 76.3151
126.277 100 76.3151
127.399 100 76.3151
128.522 100 76.3151
129.644 100 76.3151
130.767 100 76.3151
131.889 100 76.3151
133.012 100 76.3151
134.134 100 76.3151
135.257 100 76.3151
136.38 100 76.3152
137.503 100 76.3156
138.623 100 76.3161
139.736 100 76.3177
140.846 100 76.3206
141.961 100 76.324
143.076 100 76.3273
144.191 100 76.349
145.297 100 76.2348
79.3094 100 77.3406
80.4054 100 77.4451
81.5029 100 77.425
82.5967 100 77.4229
83.6934 100 77.4205
84.7848 100 77.4188
85.8773 100 77.4181
86.9891 100 77.4178
88.1121 100 77.4179
89.2354 100 77.4179
90.3581 100 77.4179
91.4806 100 77.4179
92.6031 100 77.4179
93.7256 100 77.4179
94.848 100 77.4179
95.9705 100 77.4179
97.093 100 77.4179
98.2154 100 77.4179
99.3379 100 77.4179
100.46 100 77.4179
101.583 100 77.4179
102.705 100 77.4179
103.828 100 77.4179
104.95 100 77.4179
106.073 100 77.4179
107.195 100 77.4179
108.318 100 77.4179
109.44 100 77.4179
110.563 100 77.4179
111.685 100 77.4179
112.807 100 77.4179
113.93 100 77.4179
115.052 100 77.4179
116.175 100 77.4179
117.297 100 77.4179
118.42 100 77.4179
119.542 100 77.4179
120.665 100 77.4179
121.787 100 77.4179
122.91 100 77.4179
124.032 100 77.4179
125.155 100 77.4179
126.277 100 77.4179
127.399 100 77.4179
128.522 100 77.4179
129.644 100 77.4179
130.767 100 77.4179
131.889 100 77.4179
133.012 100 77.4179
134.134 100 77.4179
135.257 100 77.4179
136.38 100 77.4179
137.503 100 77.4178
138.615 100 77.4181
139.708 100 77.4188
140.799 100 77.4205
141.896 100 77.4229
142.99 100 77.425
144.087 100 77.4451
145.183 100 77.3406
79.2877 100 78.4556
80.3854 100 78.5425
81.4839 100 78.5235
82.5815 100 78.5212
83.6835 100 78.519
84.7792 100 78.5179
85.8771 100 78.5176
86.9912 100 78.5176
88.1136 100 78.5176
89.2364 100 78.5176
90.3584 100 78.5174
91.4807 100 78.5174
92.6031 100 78.5174
93.7256 100 78.5174
94.848 100 78.5174
95.9705 100 78.5174
97.093 100 78.5174
98.2154 100 78.5174
99.3379 100 78.5174
100.46 100 78.5174
101.583 100 78.5174
102.705 100 78.5174
103.828 100 78.5174
104.95 100 78.5174
106.073 100 78.5174
107.195 100 78.5174
108.318 100 78.5174
109.44 100 78.5174
110.563 100 78.5174
111.685 100 78.5174
112.807 100 78.5174
113.93 100 78.5174
115.052 100 78.5174
116.175 100 78.5174
117.297 100 78.5174
118.42 100 78.5174
119.542 100 78.5174
120.665 100 78.5174
121.787 100 78.5174
122.91 100 78.5174
124.032 100 78.5174
125.155 100 78.5174
126.277 100 78.5174
127.399 100 78.5174
128.522 100 78.5174
129.644 100 78.5174
130.767 100 78.5174
131.889 100 78.5174
133.012 100 78.5174
134.134 100 78.5174
135.256 100 78.5176
136.379 100 78.5176
137.501 100 78.5176
138.615 100 78.5176
139.713 100 78.5179
140.809 100 78.519
141.911 100 78.5212
143.009 100 78.5235
144.107 100 78.5425
145.205 100 78.4556
79.2844 100 79.5714
80.3832 100 79.6364
81.4816 100 79.6211
82.5792 100 79.6189
83.6819 100 79.6172
84.7777 100 79.6167
85.8762 100 79.6168
86.991 100 79.617
88.1129 100 79.6171
89.2356 100 79.6171
90.3581 100 79.617
91.4806 100 79.617
92.6031 100 79.617
93.7256 100 79.617
94.848 100 79.617
95.9705 100 79.617
97.093 100 79.617
98.2154 100 79.617
99.3379 100 79.617
100.46 100 79.617
101.583 100 79.617
102.705 100 79.617
103.828 100 79.617
104.95 100 79.617
106.073 100 79.617
107.195 100 79.617
108.318 100 79.617
109.44 100 79.617
110.563 100 79.617
111.685 100 79.617
112.807 100 79.617
113.93 100 79.617
115.052 100 79.617
116.175 100 79.617
117.297 100 79.617
118.42 100 79.617
119.542 100 79.617
120.665 100 79.617
121.787 100 79.617
122.91 100 79.617
124.032 100 79.617
125.155 100 79.617
126.277 100 79.617
127.399 100 79.617
128.522 100 79.617
129.644 100 79.617
130.767 100 79.617
131.889 100 79.617
133.012 100 79.617
134.134 100 79.617
135.257 100 79.6171
136.379 100 79.6171
137.501 100 79.617
138.616 100 79.6168
139.715 100 79.6167
140.811 100 79.6172
141.913 100 79.6189
143.011 100 79.6211
144.109 100 79.6364
145.208 100 79.5714
79.281 100 80.6858
80.3809 100 80.733
81.4793 100 80.7232
82.5776 100 80.7215
83.6807 100 80.7204
84.7767 100 80.7199
85.8758 100 80.7199
86.9913 100 80.7199
88.1132 100 80.7199
89.2357 100 80.7199
90.3582 100 80.7199
91.4807 100 80.7199
92.6031 100 80.7199
93.7256 100 80.7199
94.848 100 80.7199
95.9705 100 80.7199
97.093 100 80.7199
98.2154 100 80.7199
99.3379 100 80.7199
100.46 100 80.7199
101.583 100 80.7199
102.705 100 80.7199
103.828 100 80.7199
104.95 100 80.7199
106.073 100 80.7199
107.195 100 80.7199
108.318 100 80.7199
109.44 100 80.7199
110.563 100 80.7199
111.685 100 80.7199
112.807 100 80.7199
113.93 100 80.7199
115.052 100 80.7199
116.175 100 80.7199
117.297 100 80.7199
118.42 100 80.7199
119.542 100 80.7199
120.665 100 80.7199
121.787 100 80.7199
122.91 100 80.7199
124.032 100 80.7199
125.155 100 80.7199
126.277 100 80.7199
127.399 100 80.7199
128.522 100 80.7199
129.644 100 80.7199
130.767 100 80.7199
131.889 100 80.7199
133.012 100 80.7199
134.134 100 80.7199
135.257 100 80.7199
136.379 100 80.7199
137.501 100 80.7199
138.617 100 80.7199
139.716 100 80.7199
140.812 100 80.7204
141.915 100 80.7215
143.013 100 80.7232
144.112 100 80.733
145.211 100 80.6858
79.2781 100 81.7963
80.3792 100 81.8244
81.4782 100 81.8189
82.577 100 81.8174
83.6802 100 81.8163
84.7759 100 81.8156
85.8751 100 81.8153
86.9912 100 81.8152
88.1133 100 81.8151
89.2357 100 81.8151
90.3582 100 81.8151
91.4807 100 81.8151
92.6031 100 81.8151
93.7256 100 81.8151
94.848 100 81.8151
95.9705 100 81.8151
97.093 100 81.8151
98.2154 100 81.8151
99.3379 100 81.8151
100.46 100 81.8151
101.583 100 81.8151
102.705 100 81.8151
103.828 100 81.8151
104.95 100 81.8151
106.073 100 81.8151
107.195 100 81.8151
108.318 100 81.8151
109.44 100 81.8151
110.563 100 81.8151
111.685 100 81.8151
112.807 100 81.8151
113.93 100 81.8151
115.052 100 81.8151
116.175 100 81.8151
117.297 100 81.8151
118.42 100 81.8151
119.542 100 81.8151
120.665 100 81.8151
121.787 100 81.8151
122.91 100 81.8151
124.032 100 81.8151
125.155 100 81.8151
126.277 100 81.8151
127.399 100 81.8151
128.522 100 81.8151
129.644 100 81.8151
130.767 100 81.8151
131.889 100 81.8151
133.012 100 81.8151
134.134 100 81.8151
135.257 100 81.8151
136.379 100 81.8151
137.501 100 81.8152
138.617 100 81.8153
139.716 100 81.8156
140.812 100 81.8163
141.915 100 81.8174
143.014 100 81.8189
144.113 100 81.8244
145.214 100 81.7963
79.2765 100 82.9092
80.3785 100 82.9169
81.4779 100 82.9167
82.5771 100 82.9159
83.6802 100 82.9154
84.7757 100 82.9147
85.8749 100 82.9146
86.9913 100 82.9145
88.1133 100 82.9146
89.2357 100 82.9146
90.3582 100 82.9146
91.4807 100 82.9146
92.6031 100 82.9146
93.7256 100 82.9146
94.848 100 82.9146
95.9705 100 82.9146
97.093 100 82.9146
98.2154 100 82.9146
99.3379 100 82.9146
100.46 100 82.9146
101.583 100 82.9146
102.705 100 82.9146
103.828 100 82.9146
104.95 100 82.9146
106.073 100 82.9146
107.195 100 82.9146
108.318 100 82.9146
109.44 100 82.9146
110.563 100 82.9146
111.685 100 82.9146
112.807 100 82.9146
113.93 100 82.9146
115.052 100 82.9146
116.175 100 82.9146
117.297 100 82.9146
118.42 100 82.9146
119.542 100 82.9146
120.665 100 82.9146
121.787 100 82.9146
122.91 100 82.9146
124.032 100 82.9146
125.155 100 82.9146
126.277 100 82.9146
127.399 100 82.9146
128.522 100 82.9146
129.644 100 82.9146
130.767 100 82.9146
131.889 100 82.9146
133.012 100 82.9146
134.134 100 82.9146
135.257 100 82.9146
136.379 100 82.9146
137.501 100 82.9145
138.617 100 82.9146
139.717 100 82.9147
140.812 100 82.9154
141.915 100 82.9159
143.014 100 82.9167
144.114 100 82.9169
145.216 100 82.9092
79.2759 100 84.0288
80.3782 100 84.0287
81.4779 100 84.0308
82.5774 100 84.0306
83.6803 100 84.031
84.7755 100 84.0309
85.8749 100 84.0309
86.9914 100 84.031
88.1134 100 84.031
89.2357 100 84.031
90.3582 100 84.031
91.4807 100 84.031
92.6031 100 84.031
93.7256 100 84.031
94.848 100 84.031
95.9705 100 84.031
97.093 100 84.031
98.2154 100 84.031
99.3379 100 84.031
100.46 100 84.031
101.583 100 84.031
102.705 100 84.031
103.828 100 84.031
104.95 100 84.031
106.073 100 84.031
107.195 100 84.031
108.318 100 84.031
109.44 100 84.031
110.563 100 84.031
111.685 100 84.031
112.807 100 84.031
113.93 100 84.031
115.052 100 84.031
116.175 100 84.031
117.297 100 84.031
118.42 100 84.031
119.542 100 84.031
120.665 100 84.031
121.787 100 84.031
122.91 100 84.031
124.032 100 84.031
125.155 100 84.031
126.277 100 84.031
127.399 100 84.031
128.522 100 84.031
129.644 100 84.031
130.767 100 84.031
131.889 100 84.031
133.012 100 84.031
134.134 100 84.031
135.257 100 84.031
136.379 100 84.031
137.501 100 84.031
138.618 100 84.0309
139.717 100 84.0309
140.812 100 84.031
141.915 100 84.0306
143.014 100 84.0308
144.114 100 84.0287
145.216 100 84.0288
79.2755 100 85.1521
80.3783 100 85.1519
81.4779 100 85.1532
82.5774 100 85.1526
83.6802 100 85.1528
84.7755 100 85.1529
85.8749 100 85.153
86.9914 100 85.153
88.1134 100 85.153
89.2357 100 85.153
90.3582 100 85.153
91.4807 100 85.153
92.6031 100 85.153
93.7256 100 85.153
94.848 100 85.153
95.9705 100 85.153
97.093 100 85.153
98.2154 100 85.153
99.3379 100 85.153
100.46 100 85.153
101.583 100 85.153
102.705 100 85.153
103.828 100 85.153
104.95 100 85.153
106.073 100 85.153
[...]
POINT_DATA 1600
SCALARS mass double
LOOKUP_TABLE default
1
1
1
1
1
1
1
1
1
1
1
1
1
1
1
1
1
1
1
1
1
1
1
1
1
1
1
1
1
1
1
1
1
1
1
1
1
1
1
1
1
1
1
1
1
1
1
1
1
1
1
1
1
1
1
1
1
1
1
1
1
1
1
1
1
1
1
1
1
1
1
1
1
1
1
1
1
1
1
1
1
1
1
1
1
1
1
1
1
1
1
1
1
1
1
1
1
1
1
1
1
1
1
1
1
1
1
1
1
1
1
1
1
1
1
1
1
1
1
1
1
1
1
1
1
1
1
1
1
1
1
1
1
1
1
1
1
1
1
1
1
1
1
1
1
1
1
1
1
1
1
1
1
1
1
1
1
1
1
1
1
1
1
1
1
1
1
1
1
1
1
1
1
1
1
1
1
1
1
1
1
1
1
1
1
1
1
1
1
1
1
1
1
1
1
1
1
1
1
1
1
1
1
1
1
1
1
1
1
1
1
1
1
1
1
1
1
1
1
1
1
1
1
1
1
1
1
1
1
1
1
1
1
1
1
1
1
1
1
1
1
1
1
1
1
1
1
1
1
1
1
1
1
1
1
1
1
1
1
1
1
1
1
1
1
1
1
1
1
1
1
1
1
1
1
1
1
1
1
1
1
1
1
1
1
1
1
1
1
1
1
1
1
1
1
1
1
1
1
1
1
1
1
1
1
1
1
1
1
1
1
1
1
1
1
1
1
1
1
1
1
1
1
1
1
1
1
1
1
1
1
1
1
1
1
1
1
1
1
1
1
1
1
1
1
1
1
1
1
1
1
1
1
1
1
1
1
1
1
1
1
1
1
1
1
1
1
1
1
1
1
1
1
1
1
1
1
1
1
1
1
1
1
1
1
1
1
1
1
1
1
1
1
1
1
1
1
1
1
1
1
1
1
1
1
1
1
1
1
1
1
1
1
1
1
1
1
1
1
1
1
1
1
1
1
1
1
1
1
1
1
1
1
1
1
1
1
1
1
1
1
1
1
1
1
1
1
1
1
1
1
1
1
1
1
1
1
1
1
1
1
1
1
1
1
1
1
1
1
1
1
1
1
1
1
1
1
1
1
1
1
1
1
1
1
1
1
1
1
1
1
1
1
1
1
1
1
1
1
1
1
1
1
1
1
1
1
1
1
1
1
1
1
1
1
1
1
1
1
1
1
1
1
1
1
1
1
1
1
1
1
1
1
1
1
1
1
1
1
1
1
1
1
1
1
1
1
1
1
1
1
1
1
1
1
1
1
1
1
1
1
1
1
1
1
1
1
1
1
1
1
1
1
1
1
1
1
1
1
1
1
1
1
1
1
1
1
1
1
1
1
1
1
1
1
1
1
1
1
1
1
1
1
1
1
1
1
1
1
1
1
1
1
1
1
1
1
1
1
1
1
1
1
1
1
1
1
1
1
1
1
1
1
1
1
1
1
1
1
1
1
1
1
1
1
1
1
1
1
1
1
1
1
1
1
1
1
1
1
1
1
1
1
1
1
1
1
1
1
1
1
1
1
1
1
1
1
1
1
1
1
1
1
1
1
1
1
1
1
1
1
1
1
1
1
1
1
1
1
1
1
1
1
1
1
1
1
1
1
1
1
1
1
1
1
1
1
1
1
1
1
1
1
1
1
1
1
1
1
1
1
1
1
1
1
1
1
1
1
1
1
1
1
1
1
1
1
1
1
1
1
1
1
1
1
1
1
1
1
1
1
1
1
1
1
1
1
1
1
1
1
1
1
1
1
1
1
1
1
1
1
1
1
1
1
1
1
1
1
1
1
1
1
1
1
1
1
1
1
1
1
1
1
1
1
1
1
1
1
1
1
1
1
1
1
1
1
1
1
1
1
1
1
1
1
1
1
1
1
1
1
1
1
1
1
1
1
1
1
1
1
1
1
1
1
1
1
1
1
1
1
1
1
1
1
1
1
1
1
1
1
1
1
1
1
1
1
1
1
1
1
1
1
1
1
1
1
1
1
1
1
1
1
1
1
1
1
1
1
1
1
1
1
1
1
1
1
1
1
1
1
1
1
1
1
1
1
1
1
1
1
1
1
1
1
1
1
1
1
1
1
1
1
1
1
1
1
1
1
1
1
1
1
1
1
1
1
1
1
1
1
1
1
1
1
1
1
1
1
1
1
1
1
1
1
1
1
1
1
1
1
1
1
1
1
1
1
1
1
1
1
1
1
1
1
1
1
1
1
1
1
1
1
1
1
1
1
1
1
1
1
1
1
1
1
1
1
1
1
1
1
1
1
1
1
1
1
1
1
1
1
1
1
1
1
1
1
1
1
1
1
1
1
1
1
1
1
1
1
1
1
1
1
1
1
1
1
1
1
1
1
1
1
1
1
1
1
1
1
1
1
1
1
1
1
1
1
1
1
1
1
1
1
1
1
1
1
1
1
1
1
1
1
1
1
1
1
1
1
1
1
1
1
1
1
1
1
1
1
1
1
1
1
1
1
1
1
1
1
1
1
1
1
1
1
1
1
1
1
1
1
1
1
1
1
1
1
1
1
1
1
1
1
1
1
1
1
1
1
1
1
1
1
1
1
1
1
1
1
1
1
1
1
1
1
1
1
1
1
1
1
1
1
1
1
1
1
1
1
1
1
1
1
1
1
1
1
1
1
1
1
1
1
1
1
1
1
1
1
1
1
1
1
1
1
1
1
1
1
1
1
1
1
1
1
1
1
1
1
1
1
1
1
1
1
1
1
1
1
1
1
1
1
1
1
1
1
1
1
1
1
1
1
1
1
1
1
1
1
1
1
1
1
1
1
1
1
1
1
1
1
1
1
1
1
1
1
1
1
1
1
1
1
1
1
1
1
1
1
1
1
1
1
1
1
1
1
1
1
1
1
1
1
1
1
1
1
1
1
1
1
1
1
1
1
1
1
1
1
1
1
1
1
1
1
1
1
1
1
1
1
1
1
1
1
1
1
1
1
1
1
1
1
1
1
1
1
1
1
1
1
1
1
1
1
1
1
1
1
1
1
1
1
1
1
1
1
1
1
1
1
1
1
1
1
1
1
1
1
1
1
1
1
1
1
1
1
1
1
1
1
1
1
1
1
1
1
1
1
1
1
1
1
1
1
1
1
1
1
1
1
1
1
1
1
1
1
1
1
1
1
1
1
1
1
1
1
1
1
1
1
1
1
1
1
1
1
1
1
1
1
1
1
1
1
1
1
1
1
1
1
1
1
1
1
1
1
1
1
1
1
1
1
1
1
1
1
1
1
1
1
1
1
1
1
1
1
1
1
1
1
1
1
1
1
1
1
1
1
1
1
1
1
1
1
1
1
1
1
1
1
1
1
1
1
1
1
1
1
1
1
1
1
1
1
1
1
1
1
1
1
1
1
1
1
1
1
1
1
1
1
1
1
1
1
1
1
1
1
1
1
1
1
1
1
1
1
1
1
1
1
1
1
1
1
1
1
1
1
1
1
1
1
1
1
1
1
1
1
1
1
1
1
1
1
1
1
1
1
1
1
1
1
1
1
1
1
1
1
1
1
1
1
1
1
1
1
1
1
1
1
1
1
1
1
1
1
1
1
1
1
1
1
1
1
1
1
1
1
1
1
1
1
1
1
1
1
1
1
1
VECTORS force double
-1.44101 0 -1.44101
-2.24306 0 2.22785
-1.65611 0 0.261064
-2.09984 0 0.258309
-2.29335 0 0.325046
0.167357 0 0.504139
1.80661 0 0.50041
0.790656 0 0.185568
-0.229034 0 0.242679
-0.137976 0 0.183533
-0.0300026 0 0.181526
-0.00412596 0 0.178359
-4.22213e-05 0 0.177672
0.000122285 0 0.177604
2.89605e-05 0 0.177603
3.91855e-06 0 0.177649
3.82352e-07 0 0.177648
4.66655e-08 0 0.177647
4.5278e-09 0 0.177647
8.2356e-11 0 0.177647
4.23217e-13 0 0.177647
5.55112e-16 0 0.177647
4.44089e-16 0 0.177647
4.44089e-16 0 0.177647
-1.80411e-14 0 0.177647
3.96794e-12 0 0.177647
-7.9291e-12 0 0.177647
7.94698e-12 0 0.177647
-7.94731e-12 0 0.177647
7.92877e-12 0 0.177647
-3.96783e-12 0 0.177647
1.82077e-14 0 0.177647
5.55112e-16 0 0.177647
-1.77636e-14 0 0.177647
3.96794e-12 0 0.177647
-7.92866e-12 0 0.177647
7.94698e-12 0 0.177647
-7.94731e-12 0 0.177647
7.92877e-12 0 0.177647
-4.39015e-12 0 0.177647
-8.23017e-11 0 0.177647
-4.53578e-09 0 0.177647
-4.66171e-08 0 0.177647
-3.82162e-07 0 0.177648
-3.91866e-06 0 0.177649
-2.89607e-05 0 0.177603
-0.000122285 0 0.177604
4.22213e-05 0 0.177672
0.00412596 0 0.178359
0.0300026 0 0.181526
0.137976 0 0.183533
0.229034 0 0.242679
-0.790656 0 0.185568
-1.80661 0 0.50041
-0.167357 0 0.504139
2.29335 0 0.325046
2.09984 0 0.258309
1.65611 0 0.261064
2.24306 0 2.22785
1.44101 0 -1.44101
2.22785 0 -2.24306
1.76812 0 1.76812
0.764844 0 -0.327323
3.28972 0 0.147832
-0.981084 0 0.125759
1.38013 0 0.255097
7.88536 0 0.0057431
2.95472 0 -0.11044
-0.323177 0 -0.379447
-0.207386 0 -0.258362
-0.0433512 0 -0.293246
-0.0126483 0 -0.306504
-0.00679 0 -0.306116
-0.00193452 0 -0.305958
-0.000397527 0 -0.305743
-6.45639e-05 0 -0.305747
-7.98259e-06 0 -0.305753
-9.48207e-07 0 -0.305754
-7.50866e-08 0 -0.305755
-3.24875e-09 0 -0.305755
1.13133e-13 0 -0.305755
3.88578e-15 0 -0.305755
3.34537e-16 0 -0.305755
3.34537e-16 0 -0.305755
1.1452e-13 0 -0.305755
3.86362e-12 0 -0.305755
-7.85338e-12 0 -0.305755
7.73963e-12 0 -0.305755
-7.73881e-12 0 -0.305755
7.85471e-12 0 -0.305755
-3.86324e-12 0 -0.305755
-1.1424e-13 0 -0.305755
3.33067e-16 0 -0.305755
1.14521e-13 0 -0.305755
3.86362e-12 0 -0.305755
-7.85372e-12 0 -0.305755
7.73875e-12 0 -0.305755
-7.73881e-12 0 -0.305755
7.85116e-12 0 -0.305755
-3.97543e-12 0 -0.305755
3.24871e-09 0 -0.305755
7.50706e-08 0 -0.305755
9.48194e-07 0 -0.305754
7.9823e-06 0 -0.305753
6.45643e-05 0 -0.305747
0.000397527 0 -0.305743
0.00193452 0 -0.305958
0.00679 0 -0.306116
0.0126483 0 -0.306504
0.0433512 0 -0.293246
0.207386 0 -0.258362
0.323177 0 -0.379447
-2.95472 0 -0.11044
-7.88536 0 0.0057431
-1.38013 0 0.255097
0.981084 0 0.125759
-3.28972 0 0.147832
-0.764844 0 -0.327323
-1.76812 0 1.76812
-2.22785 0 -2.24306
0.261064 0 -1.65611
-0.327323 0 0.764844
-0.927884 0 -0.927884
1.5294 0 -0.451366
-2.90488 0 -0.211173
0.804171 0 -0.243317
5.92212 0 -0.188986
2.38751 0 -0.163034
0.153563 0 -0.0692543
0.170732 0 -0.0472812
0.428013 0 0.0273784
0.0538925 0 0.0584919
0.00859926 0 0.0632227
0.0016415 0 0.0645804
0.000511787 0 0.0644915
0.000212618 0 0.0644508
5.30341e-05 0 0.0644485
6.59115e-06 0 0.0644622
3.34788e-07 0 0.0644626
7.03384e-09 0 0.0644626
-3.32914e-11 0 0.0644626
-1.51823e-14 0 0.0644626
-7.21645e-16 0 0.0644626
-7.21645e-16 0 0.0644626
-2.60347e-14 0 0.0644626
3.86118e-12 0 0.0644626
-7.70836e-12 0 0.0644626
7.73363e-12 0 0.0644626
-7.73501e-12 0 0.0644626
7.70788e-12 0 0.0644626
-3.86277e-12 0 0.0644626
2.59237e-14 0 0.0644626
-9.71445e-16 0 0.0644626
-2.64788e-14 0 0.0644626
3.86118e-12 0 0.0644626
-7.7077e-12 0 0.0644626
7.73452e-12 0 0.0644626
-7.73501e-12 0 0.0644626
7.72164e-12 0 0.0644626
2.94278e-11 0 0.0644626
-7.03376e-09 0 0.0644626
-3.34787e-07 0 0.0644626
-6.59105e-06 0 0.0644622
-5.30341e-05 0 0.0644485
-0.000212618 0 0.0644508
-0.000511787 0 0.0644915
-0.0016415 0 0.0645804
-0.00859926 0 0.0632227
-0.0538925 0 0.0584919
-0.428013 0 0.0273784
-0.170732 0 -0.0472812
-0.153563 0 -0.0692543
-2.38751 0 -0.163034
-5.92212 0 -0.188986
-0.804171 0 -0.243317
2.90488 0 -0.211173
-1.5294 0 -0.451366
0.927884 0 -0.927884
0.327323 0 0.764844
-0.261064 0 -1.65611
0.258309 0 -2.09984
0.147832 0 3.28973
-0.451366 0 1.5294
2.00637 0 2.00638
-2.86547 0 1.94202
1.10447 0 1.73712
5.85726 0 1.53239
1.67365 0 1.41927
-0.160262 0 1.37749
-0.0931596 0 1.19292
-0.00601781 0 1.15833
-0.00140568 0 1.1436
-0.00933369 0 1.13525
-0.00305761 0 1.13267
-0.000498846 0 1.13234
-9.19741e-05 0 1.13229
1.16074e-05 0 1.13229
-1.92542e-05 0 1.13227
-1.1919e-08 0 1.13227
-1.16491e-09 0 1.13227
-9.2002e-12 0 1.13227
-4.35763e-15 0 1.13227
-4.44089e-16 0 1.13227
-4.44089e-16 0 1.13227
-2.40918e-14 0 1.13227
3.86269e-12 0 1.13227
-7.71286e-12 0 1.13227
7.73692e-12 0 1.13227
-7.73684e-12 0 1.13227
7.71205e-12 0 1.13227
-3.8626e-12 0 1.13227
2.44249e-14 0 1.13227
-8.04912e-16 0 1.13227
-2.53131e-14 0 1.13227
3.86269e-12 0 1.13227
-7.71241e-12 0 1.13227
7.73692e-12 0 1.13227
-7.73684e-12 0 1.13227
7.71561e-12 0 1.13227
5.3384e-12 0 1.13227
1.16503e-09 0 1.13227
1.18983e-08 0 1.13227
1.92542e-05 0 1.13227
-1.16075e-05 0 1.13229
9.19744e-05 0 1.13229
0.000498845 0 1.13234
0.00305761 0 1.13267
0.00933369 0 1.13525
0.00140568 0 1.1436
0.00601781 0 1.15833
0.0931596 0 1.19292
0.160262 0 1.37749
-1.67365 0 1.41927
-5.85726 0 1.53239
-1.10447 0 1.73712
2.86547 0 1.94202
-2.00637 0 2.00638
0.451366 0 1.5294
-0.147832 0 3.28973
-0.258309 0 -2.09984
0.325045 0 -2.29336
0.12576 0 -0.981016
-0.211173 0 -2.90495
1.94202 0 -2.8654
-3.01061 0 -3.01062
1.33613 0 -3.13463
5.89287 0 -3.2171
1.60506 0 -3.15064
0.00831154 0 -3.12412
-0.0269837 0 -3.05347
0.0030199 0 -3.0645
0.00136097 0 -3.06641
0.000638725 0 -3.06181
0.000449459 0 -3.06043
0.00024926 0 -3.0601
1.50719e-05 0 -3.06005
1.695e-06 0 -3.06005
8.37568e-07 0 -3.06004
6.51497e-09 0 -3.06004
1.01325e-11 0 -3.06004
1.34268e-13 0 -3.06004
1.11022e-16 0 -3.06004
1.52656e-16 0 -3.06004
1.52656e-16 0 -3.06004
-2.41474e-14 0 -3.06004
3.86043e-12 0 -3.06004
-7.70883e-12 0 -3.06004
7.73377e-12 0 -3.06004
-7.7337e-12 0 -3.06004
7.7094e-12 0 -3.06004
-3.8608e-12 0 -3.06004
2.41335e-14 0 -3.06004
1.11022e-16 0 -3.06004
-2.42167e-14 0 -3.06004
3.86043e-12 0 -3.06004
-7.70872e-12 0 -3.06004
7.73288e-12 0 -3.06004
-7.7337e-12 0 -3.06004
7.7094e-12 0 -3.06004
-3.99492e-12 0 -3.06004
-1.01793e-11 0 -3.06004
-6.49888e-09 0 -3.06004
-8.37443e-07 0 -3.06004
-1.69507e-06 0 -3.06005
-1.50719e-05 0 -3.06005
-0.00024926 0 -3.0601
-0.000449459 0 -3.06043
-0.000638725 0 -3.06181
-0.00136097 0 -3.06641
-0.0030199 0 -3.0645
0.0269837 0 -3.05347
-0.00831154 0 -3.12412
-1.60506 0 -3.15064
-5.89287 0 -3.2171
-1.33613 0 -3.13463
3.01061 0 -3.01062
-1.94202 0 -2.8654
0.211173 0 -2.90495
-0.12576 0 -0.981016
-0.325045 0 -2.29336
0.50413 0 0.166819
0.255095 0 1.38065
-0.243315 0 0.803628
1.73711 0 1.10493
-3.13462 0 1.33605
1.45247 0 1.45247
6.01121 0 1.59091
1.64992 0 1.74017
0.0986097 0 1.81382
-0.0073843 0 1.84774
0.0014813 0 1.84442
0.000270766 0 1.84506
-3.0108e-05 0 1.8452
-3.50809e-05 0 1.84487
-1.21348e-05 0 1.84474
-9.84225e-07 0 1.84475
-3.9261e-08 0 1.84475
1.26999e-08 0 1.84475
-1.76395e-10 0 1.84475
-8.24579e-12 0 1.84475
-2.66454e-15 0 1.84475
5.55112e-17 0 1.84475
8.88178e-16 0 1.84475
8.88178e-16 0 1.84475
-3.02258e-14 0 1.84475
3.85914e-12 0 1.84475
-7.70045e-12 0 1.84475
7.73159e-12 0 1.84475
-7.73154e-12 0 1.84475
7.7014e-12 0 1.84475
-3.85997e-12 0 1.84475
3.10862e-14 0 1.84475
5.55112e-17 0 1.84475
-3.01981e-14 0 1.84475
3.85914e-12 0 1.84475
-7.70045e-12 0 1.84475
7.72982e-12 0 1.84475
-7.73154e-12 0 1.84475
7.7014e-12 0 1.84475
-3.85644e-12 0 1.84475
8.25207e-12 0 1.84475
1.75743e-10 0 1.84475
-1.2704e-08 0 1.84475
3.89784e-08 0 1.84475
9.83984e-07 0 1.84475
1.21351e-05 0 1.84474
3.50819e-05 0 1.84487
3.01054e-05 0 1.8452
-0.000270764 0 1.84506
-0.0014813 0 1.84442
0.0073843 0 1.84774
-0.0986097 0 1.81382
-1.64992 0 1.74017
-6.01121 0 1.59091
-1.45247 0 1.45247
3.13462 0 1.33605
-1.73711 0 1.10493
0.243315 0 0.803628
-0.255095 0 1.38065
-0.50413 0 0.166819
0.500707 0 1.80734
0.00524291 0 7.88769
-0.188841 0 5.92016
1.53253 0 5.85805
-3.21717 0 5.89205
1.59087 0 6.01124
5.80838 0 5.80838
1.40782 0 5.63535
0.0863179 0 5.51429
0.00871137 0 5.49402
0.00360991 0 5.49212
0.000529784 0 5.49233
4.35351e-05 0 5.49234
2.60653e-06 0 5.49231
-1.11099e-07 0 5.4923
4.89561e-08 0 5.4923
3.99099e-09 0 5.4923
1.2399e-10 0 5.4923
-6.90259e-12 0 5.4923
-1.3739e-13 0 5.4923
3.34537e-16 0 5.4923
-6.10623e-16 0 5.4923
3.34537e-16 0 5.4923
-5.53641e-16 0 5.4923
-2.40918e-14 0 5.4923
3.86673e-12 0 5.4923
-7.72421e-12 0 5.4923
7.74896e-12 0 5.4923
-7.74908e-12 0 5.4923
7.72459e-12 0 5.4923
-3.86774e-12 0 5.4923
2.43154e-14 0 5.4923
-6.10623e-16 0 5.4923
-2.40349e-14 0 5.4923
3.86673e-12 0 5.4923
-7.7241e-12 0 5.4923
7.74896e-12 0 5.4923
-7.74908e-12 0 5.4923
7.72459e-12 0 5.4923
-3.86774e-12 0 5.4923
1.61095e-13 0 5.4923
6.9208e-12 0 5.4923
-1.28198e-10 0 5.4923
-3.80692e-09 0 5.4923
-4.9558e-08 0 5.4923
1.12053e-07 0 5.4923
-2.60706e-06 0 5.49231
-4.35352e-05 0 5.49234
-0.000529783 0 5.49233
-0.00360991 0 5.49212
-0.00871137 0 5.49402
-0.0863179 0 5.51429
-1.40782 0 5.63535
-5.80838 0 5.80838
-1.59087 0 6.01124
3.21717 0 5.89205
-1.53253 0 5.85805
0.188841 0 5.92016
-0.0052429 0 7.88769
-0.500707 0 1.80734
0.184639 0 0.789536
-0.110565 0 2.97832
-0.162216 0 2.37929
1.33342 0 1.858
-3.1511 0 1.60512
1.74062 0 1.64997
5.63538 0 1.40778
1.19669 0 1.19664
0.0906231 0 1.19779
0.0217446 0 1.20304
0.00399915 0 1.2026
0.0005297 0 1.20262
5.31845e-05 0 1.20262
4.00073e-06 0 1.20262
2.34614e-07 0 1.20262
1.47123e-08 0 1.20262
2.51195e-11 0 1.20262
-2.73237e-12 0 1.20262
-2.54907e-13 0 1.20262
-3.33067e-16 0 1.20262
0 0 1.20262
-3.33067e-16 0 1.20262
0 0 1.20262
0 0 1.20262
-1.80411e-14 0 1.20262
3.87601e-12 0 1.20262
-7.74925e-12 0 1.20262
7.76712e-12 0 1.20262
-7.76701e-12 0 1.20262
7.74847e-12 0 1.20262
-3.87634e-12 0 1.20262
1.86517e-14 0 1.20262
-3.33067e-16 0 1.20262
-1.86517e-14 0 1.20262
3.87601e-12 0 1.20262
-7.7488e-12 0 1.20262
7.76712e-12 0 1.20262
-7.76701e-12 0 1.20262
7.74847e-12 0 1.20262
-3.87634e-12 0 1.20262
1.86517e-14 0 1.20262
2.72338e-13 0 1.20262
-1.78835e-12 0 1.20262
1.22501e-10 0 1.20262
-1.45807e-08 0 1.20262
-2.35065e-07 0 1.20262
-4.00068e-06 0 1.20262
-5.31844e-05 0 1.20262
-0.0005297 0 1.20262
-0.00399915 0 1.2026
-0.0217446 0 1.20304
-0.0906231 0 1.19779
-1.19669 0 1.19664
-5.63538 0 1.40778
-1.74062 0 1.64997
3.1511 0 1.60512
-1.33342 0 1.858
0.162216 0 2.37929
0.110565 0 2.97832
-0.184639 0 0.789536
0.254773 0 -0.22538
-0.404192 0 -0.342475
-0.0593892 0 0.115144
1.29878 0 0.0198478
-3.12806 0 0.00686381
1.81423 0 0.098374
5.51435 0 0.0857886
1.19784 0 0.0900922
0.0947039 0 0.0941771
0.0214461 0 0.0938021
0.00397425 0 0.0938415
0.000525706 0 0.0938418
5.22109e-05 0 0.0938413
4.00054e-06 0 0.0938414
2.40278e-07 0 0.0938414
1.21165e-08 0 0.0938414
-6.28794e-11 0 0.0938414
-3.88101e-12 0 0.0938414
1.80981e-14 0 0.0938414
-5.55112e-16 0 0.0938414
3.34537e-16 0 0.0938414
-5.55112e-16 0 0.0938414
3.34537e-16 0 0.0938414
-5.53641e-16 0 0.0938414
-1.80411e-14 0 0.0938414
3.88005e-12 0 0.0938414
-7.7553e-12 0 0.0938414
7.77383e-12 0 0.0938414
-7.77395e-12 0 0.0938414
7.75568e-12 0 0.0938414
-3.88101e-12 0 0.0938414
1.80981e-14 0 0.0938414
-5.55112e-16 0 0.0938414
-1.78176e-14 0 0.0938414
3.88005e-12 0 0.0938414
-7.75524e-12 0 0.0938414
7.77294e-12 0 0.0938414
-7.77395e-12 0 0.0938414
7.75568e-12 0 0.0938414
-3.88101e-12 0 0.0938414
1.80981e-14 0 0.0938414
-5.55112e-16 0 0.0938414
-1.78176e-14 0 0.0938414
6.9219e-11 0 0.0938414
-1.17107e-08 0 0.0938414
-2.4087e-07 0 0.0938414
-4.00058e-06 0 0.0938414
-5.22109e-05 0 0.0938413
-0.000525706 0 0.0938418
-0.00397425 0 0.0938415
-0.0214461 0 0.0938021
-0.0947039 0 0.0941771
-1.19784 0 0.0900922
-5.51435 0 0.0857886
-1.81423 0 0.098374
3.12806 0 0.00686381
-1.29878 0 0.0198478
0.0593892 0 0.115144
0.404192 0 -0.342475
-0.254773 0 -0.22538
0.187482 0 -0.108127
-0.261113 0 -0.148764
0.1177 0 -0.304245
1.20275 0 -0.0890955
-3.05814 0 -0.0299102
1.84752 0 -0.00909755
5.49381 0 0.00508226
1.20305 0 0.0177446
0.0943277 0 0.0174714
0.0214244 0 0.0174493
0.00397405 0 0.0174607
0.000525474 0 0.01746
5.22431e-05 0 0.01746
4.00654e-06 0 0.01746
2.40552e-07 0 0.01746
1.20874e-08 0 0.01746
-5.47784e-11 0 0.01746
-4.01223e-12 0 0.01746
1.86517e-14 0 0.01746
-3.33067e-16 0 0.01746
1.3145e-13 0 0.01746
-3.33067e-16 0 0.01746
-1.3145e-13 0 0.01746
0 0 0.01746
-1.80411e-14 0 0.01746
3.88223e-12 0 0.01746
-7.75546e-12 0 0.01746
7.77334e-12 0 0.01746
-7.77411e-12 0 0.01746
7.75469e-12 0 0.01746
-3.88256e-12 0 0.01746
1.86517e-14 0 0.01746
-3.33067e-16 0 0.01746
-1.86517e-14 0 0.01746
3.88223e-12 0 0.01746
-7.75546e-12 0 0.01746
7.77334e-12 0 0.01746
-7.64311e-12 0 0.01746
7.75469e-12 0 0.01746
-4.01223e-12 0 0.01746
1.86517e-14 0 0.01746
-3.33067e-16 0 0.01746
1.12799e-13 0 0.01746
6.44915e-11 0 0.01746
-1.16901e-08 0 0.01746
-2.4111e-07 0 0.01746
-4.00653e-06 0 0.01746
-5.22433e-05 0 0.01746
-0.000525473 0 0.01746
-0.00397405 0 0.0174607
-0.0214244 0 0.0174493
-0.0943277 0 0.0174714
-1.20305 0 0.0177446
-5.49381 0 0.00508226
-1.84752 0 -0.00909755
3.05814 0 -0.0299102
-1.20275 0 -0.0890955
-0.1177 0 -0.304245
0.261113 0 -0.148764
-0.187482 0 -0.108127
0.187482 0 0.108127
-0.261113 0 0.148764
0.1177 0 0.304245
1.20275 0 0.0890955
-3.05814 0 0.0299102
1.84752 0 0.00909755
5.49381 0 -0.00508226
1.20305 0 -0.0177446
0.0943277 0 -0.0174714
0.0214244 0 -0.0174493
0.00397405 0 -0.0174607
0.000525474 0 -0.01746
5.22431e-05 0 -0.01746
4.00654e-06 0 -0.01746
2.40552e-07 0 -0.01746
1.20877e-08 0 -0.01746
-5.68971e-11 0 -0.01746
-2.15616e-12 0 -0.01746
9.1317e-12 0 -0.01746
-6.32616e-12 0 -0.01746
5.15887e-12 0 -0.01746
8.21598e-12 0 -0.01746
-6.7778e-12 0 -0.01746
1.19049e-12 0 -0.01746
-1.80411e-14 0 -0.01746
3.74772e-12 0 -0.01746
-7.75352e-12 0 -0.01746
7.77205e-12 0 -0.01746
-7.77217e-12 0 -0.01746
7.7539e-12 0 -0.01746
-3.88056e-12 0 -0.01746
1.85422e-14 0 -0.01746
-1.11022e-16 0 -0.01746
-1.82617e-14 0 -0.01746
4.01284e-12 0 -0.01746
-7.75346e-12 0 -0.01746
6.58411e-12 0 -0.01746
-1.01003e-12 0 -0.01746
-4.43542e-13 0 -0.01746
-9.03777e-12 0 -0.01746
6.34459e-12 0 -0.01746
-9.11327e-12 0 -0.01746
-1.75021e-12 0 -0.01746
6.6606e-11 0 -0.01746
-1.16903e-08 0 -0.01746
-2.4111e-07 0 -0.01746
-4.00653e-06 0 -0.01746
-5.22433e-05 0 -0.01746
-0.000525473 0 -0.01746
-0.00397405 0 -0.0174607
-0.0214244 0 -0.0174493
-0.0943277 0 -0.0174714
-1.20305 0 -0.0177446
-5.49381 0 -0.00508226
-1.84752 0 0.00909755
3.05814 0 0.0299102
-1.20275 0 0.0890955
-0.1177 0 0.304245
0.261113 0 0.148764
-0.187482 0 0.108127
0.254773 0 0.22538
-0.404192 0 0.342475
-0.0593892 0 -0.115144
1.29878 0 -0.0198478
-3.12806 0 -0.00686381
1.81423 0 -0.098374
5.51435 0 -0.0857886
1.19784 0 -0.0900922
0.0947039 0 -0.0941771
0.0214461 0 -0.0938021
0.00397425 0 -0.0938415
0.000525706 0 -0.0938418
5.22109e-05 0 -0.0938413
4.00054e-06 0 -0.0938414
2.40277e-07 0 -0.0938414
1.21332e-08 0 -0.0938414
-2.18709e-10 0 -0.0938414
3.13729e-10 0 -0.0938414
8.95916e-10 0 -0.0938414
-8.39776e-10 0 -0.0938414
2.25965e-10 0 -0.0938414
1.04793e-09 0 -0.0938414
-4.11246e-10 0 -0.0938414
2.58662e-12 0 -0.0938414
1.13631e-11 0 -0.0938414
2.42339e-12 0 -0.0938414
-8.68094e-12 0 -0.0938414
7.77201e-12 0 -0.0938414
-7.77234e-12 0 -0.0938414
7.7538e-12 0 -0.0938414
-3.8799e-12 0 -0.0938414
1.82077e-14 0 -0.0938414
-3.33067e-16 0 -0.0938414
9.08162e-13 0 -0.0938414
5.33529e-12 0 -0.0938414
-1.91352e-11 0 -0.0938414
5.77183e-12 0 -0.0938414
4.02791e-10 0 -0.0938414
-1.0396e-09 0 -0.0938414
-2.30524e-10 0 -0.0938414
8.39789e-10 0 -0.0938414
-8.95612e-10 0 -0.0938414
-3.1763e-10 0 -0.0938414
2.24694e-10 0 -0.0938414
-1.17273e-08 0 -0.0938414
-2.4087e-07 0 -0.0938414
-4.00058e-06 0 -0.0938414
-5.22109e-05 0 -0.0938413
-0.000525706 0 -0.0938418
-0.00397425 0 -0.0938415
-0.0214461 0 -0.0938021
-0.0947039 0 -0.0941771
-1.19784 0 -0.0900922
-5.51435 0 -0.0857886
-1.81423 0 -0.098374
3.12806 0 -0.00686381
-1.29878 0 -0.0198478
0.0593892 0 -0.115144
0.404192 0 0.342475
-0.254773 0 0.22538
0.184639 0 -0.789536
-0.110565 0 -2.97832
-0.162216 0 -2.37929
1.33342 0 -1.858
-3.1511 0 -1.60512
1.74062 0 -1.64997
5.63538 0 -1.40778
1.19669 0 -1.19664
0.0906231 0 -1.19779
0.0217446 0 -1.20304
0.00399915 0 -1.2026
0.0005297 0 -1.20262
5.31845e-05 0 -1.20262
4.00073e-06 0 -1.20262
2.34648e-07 0 -1.20262
1.53889e-08 0 -1.20262
-8.24129e-09 0 -1.20262
2.6094e-08 0 -1.20262
5.17503e-08 0 -1.20262
-8.93535e-08 0 -1.20262
-2.25413e-08 0 -1.20262
8.34857e-08 0 -1.20262
-1.1176e-08 0 -1.20262
-8.52605e-09 0 -1.20262
9.4382e-10 0 -1.20262
1.73929e-10 0 -1.20262
-4.54888e-11 0 -1.20262
-1.84244e-11 0 -1.20262
-1.38874e-11 0 -1.20262
1.13562e-11 0 -1.20262
-7.48546e-12 0 -1.20262
6.13554e-12 0 -1.20262
2.62071e-11 0 -1.20262
3.77054e-11 0 -1.20262