# vtk DataFile Version 3.0
SiWiRVisFile
ASCII
DATASET UNSTRUCTURED_GRID
POINTS 1600 DOUBLE
78.0596 100 75.1434
79.2382 100 75.5581
80.3193 100 75.8698
82.1565 100 75.4385
83.2943 100 75.4978
84.4115 100 75.7154
85.6716 100 75.6764
86.7734 100 76.0104
87.9356 100 76.2419
89.2407 100 76.191
90.3595 100 76.3709
91.3388 100 77.2281
91.2564 100 75.791
92.1776 100 74.6529
92.6191 100 73.6787
94.6521 100 72.6271
95.9366 100 71.9381
96.9829 100 72.3688
96.9006 100 70.8504
99.6146 100 72.2507
103.874 100 63.6686
103.114 100 65.8764
103.477 100 64.859
104.877 100 64.9141
105.052 100 63.7485
106.457 100 63.631
108.824 100 63.67
109.672 100 62.6065
110.772 100 62.7268
111.602 100 61.9088
112.891 100 61.9088
113.72 100 62.7268
114.821 100 62.6065
115.669 100 63.67
118.035 100 63.631
119.441 100 63.7485
119.616 100 64.9141
121.016 100 64.859
121.378 100 65.8764
120.618 100 63.6686
124.878 100 72.2507
127.592 100 70.8504
127.509 100 72.3688
128.556 100 71.9381
129.84 100 72.6271
131.873 100 73.6787
132.315 100 74.6529
133.236 100 75.791
133.154 100 77.2281
134.133 100 76.3709
135.252 100 76.191
136.557 100 76.2419
137.719 100 76.0104
138.821 100 75.6764
140.081 100 75.7154
141.198 100 75.4978
142.336 100 75.4385
144.173 100 75.8698
145.254 100 75.5581
146.433 100 75.1434
78.2979 100 76.2394
79.4728 100 76.6746
81.3367 100 76.3672
82.4452 100 76.4854
83.6586 100 76.6356
84.9476 100 76.8328
86.0747 100 76.8575
87.0994 100 77.141
88.1878 100 77.271
89.3049 100 77.5322
90.3478 100 77.8903
91.3902 100 78.3302
92.4037 100 76.5105
92.9578 100 75.5361
94.0255 100 75.4221
93.8721 100 74.1158
95.6544 100 73.0955
98.4032 100 72.1866
99.4578 100 73.3615
100.974 100 71.583
102.234 100 65.1547
100.958 100 69.4474
104.055 100 69.1642
108.386 100 66.1157
105.918 100 64.5901
107.193 100 64.6353
108.288 100 64.964
109.372 100 64.6084
110.302 100 63.9401
111.644 100 63.4126
112.848 100 63.4126
114.19 100 63.9401
115.12 100 64.6084
116.205 100 64.964
117.3 100 64.6353
118.575 100 64.5901
116.107 100 66.1157
120.437 100 69.1642
123.534 100 69.4474
122.259 100 65.1547
123.518 100 71.583
125.035 100 73.3615
126.089 100 72.1866
128.838 100 73.0955
130.62 100 74.1158
130.467 100 75.4221
131.535 100 75.5361
132.089 100 76.5105
133.102 100 78.3302
134.145 100 77.8903
135.187 100 77.5322
136.305 100 77.271
137.393 100 77.141
138.418 100 76.8575
139.545 100 76.8328
140.834 100 76.6356
142.047 100 76.4854
143.156 100 76.3672
145.02 100 76.6746
146.195 100 76.2394
78.5413 100 77.3014
79.6009 100 77.7967
80.435 100 77.1309
81.5651 100 77.3795
82.8676 100 77.5009
84.0563 100 77.7289
85.1503 100 77.8313
86.2513 100 77.9164
87.454 100 78.1432
88.6806 100 78.564
89.7183 100 78.9135
90.7642 100 79.1913
92.0493 100 79.6325
92.4712 100 77.7213
94.769 100 76.6617
95.1671 100 75.4488
95.5342 100 74.3607
96.459 100 73.8408
97.9594 100 73.8281
100.66 100 72.6604
102.362 100 71.6363
103.017 100 69.7125
104.952 100 70.2444
106.062 100 69.6558
107.141 100 68.4202
108.22 100 70.7088
109.254 100 69.6861
107.708 100 69.4846
110.538 100 65.1972
111.354 100 64.6014
113.138 100 64.6014
113.955 100 65.1972
116.784 100 69.4846
115.239 100 69.6861
116.272 100 70.7088
117.351 100 68.4202
118.431 100 69.6558
119.54 100 70.2444
121.476 100 69.7125
122.131 100 71.6363
123.832 100 72.6604
126.533 100 73.8281
128.033 100 73.8408
128.958 100 74.3607
129.325 100 75.4488
129.723 100 76.6617
132.021 100 77.7213
132.443 100 79.6325
133.728 100 79.1913
134.774 100 78.9135
135.812 100 78.564
137.038 100 78.1432
138.241 100 77.9164
139.342 100 77.8313
140.436 100 77.7289
141.625 100 77.5009
142.927 100 77.3795
144.057 100 77.1309
144.892 100 77.7967
145.951 100 77.3014
78.6581 100 78.4236
79.7172 100 78.9485
80.7832 100 78.2134
81.9301 100 78.5456
83.2118 100 78.5098
84.4349 100 78.6789
85.5303 100 78.9801
86.6257 100 79.0946
87.8235 100 79.2722
88.8966 100 79.7354
90.045 100 80.0844
91.2263 100 80.3535
92.5328 100 80.6091
93.4905 100 78.2641
93.6162 100 77.1471
95.5335 100 77.4326
96.1941 100 75.9652
97.0766 100 75.0459
98.1735 100 74.8328
99.5754 100 74.4775
100.459 100 73.8564
101.82 100 72.6125
103.737 100 71.486
104.812 100 71.5523
106.138 100 70.921
106.976 100 70.2294
108.942 100 71.4819
109.988 100 71.5957
110.338 100 69.1341
111.363 100 65.8798
113.129 100 65.8798
114.154 100 69.1341
114.505 100 71.5957
115.551 100 71.4819
117.517 100 70.2294
118.354 100 70.9209
119.68 100 71.5523
120.755 100 71.486
122.672 100 72.6125
124.033 100 73.8564
124.917 100 74.4775
126.319 100 74.8328
127.416 100 75.0459
128.298 100 75.9652
128.959 100 77.4326
130.876 100 77.1471
131.002 100 78.2641
131.96 100 80.6091
133.266 100 80.3536
134.447 100 80.0844
135.596 100 79.7354
136.669 100 79.2722
137.867 100 79.0946
138.962 100 78.9801
140.058 100 78.6789
141.281 100 78.5098
142.562 100 78.5456
143.709 100 78.2134
144.775 100 78.9485
145.834 100 78.4236
78.7695 100 79.5894
79.7519 100 80.0458
80.9795 100 79.3273
82.6074 100 79.5459
83.7857 100 79.5305
84.7855 100 79.7984
85.8882 100 79.9937
87.0013 100 80.1793
88.0186 100 80.7826
89.1606 100 81.0877
90.3996 100 81.1559
91.5133 100 81.4169
93.6192 100 80.04
94.2962 100 79.0224
94.3739 100 77.768
96.4084 100 78.2862
96.9219 100 76.8212
97.6456 100 76.0039
98.8732 100 75.9957
99.7868 100 75.557
101.78 100 73.739
103.177 100 73.5022
104.917 100 73.011
105.734 100 72.1442
107.081 100 71.6657
108.08 100 72.224
109.328 100 72.505
110.429 100 72.6632
110.211 100 70.2985
111.497 100 69.0037
112.996 100 69.0037
114.281 100 70.2985
114.063 100 72.6632
115.165 100 72.5051
116.412 100 72.224
117.411 100 71.6657
118.758 100 72.1442
119.576 100 73.011
121.316 100 73.5022
122.713 100 73.739
124.706 100 75.557
125.619 100 75.9957
126.847 100 76.0039
127.571 100 76.8212
128.084 100 78.2862
130.119 100 77.768
130.196 100 79.0224
130.873 100 80.04
132.979 100 81.4169
134.093 100 81.1559
135.332 100 81.0877
136.474 100 80.7826
137.491 100 80.1793
138.604 100 79.9937
139.707 100 79.7984
140.707 100 79.5305
141.885 100 79.5459
143.513 100 79.3273
144.74 100 80.0458
145.723 100 79.5894
78.9927 100 80.7821
79.9413 100 81.3226
80.7882 100 80.3888
81.945 100 80.5211
82.9546 100 80.6988
83.9921 100 80.7956
85.1511 100 80.9554
86.3234 100 81.1311
87.2228 100 81.7892
88.3898 100 81.9138
89.6067 100 82.145
90.5831 100 82.3991
92.572 100 81.8588
93.427 100 81.2024
94.6841 100 80.0153
95.3685 100 78.4336
97.3791 100 79.1842
97.4213 100 77.8186
98.2652 100 76.8938
99.7004 100 76.7942
100.701 100 74.9471
102.507 100 74.4748
103.771 100 74.4275
104.987 100 74.1259
105.908 100 73.6191
107.352 100 73.0269
108.502 100 73.3509
109.637 100 73.5762
111.533 100 72.5983
111.046 100 71.608
113.446 100 71.608
112.959 100 72.5983
114.855 100 73.5762
115.991 100 73.3509
117.141 100 73.0269
118.584 100 73.6191
119.505 100 74.1259
120.721 100 74.4275
121.985 100 74.4748
123.791 100 74.9471
124.792 100 76.7942
126.227 100 76.8938
127.071 100 77.8186
127.113 100 79.1842
129.124 100 78.4336
129.808 100 80.0153
131.065 100 81.2024
131.92 100 81.8588
133.909 100 82.3991
134.886 100 82.145
136.103 100 81.9138
137.27 100 81.7892
138.169 100 81.1311
139.341 100 80.9554
140.5 100 80.7956
141.538 100 80.6988
142.547 100 80.5211
143.704 100 80.3888
144.551 100 81.3226
145.5 100 80.7821
78.9923 100 81.9173
79.9844 100 82.3394
81.0475 100 81.7784
82.2002 100 81.8487
83.3335 100 81.8767
84.3867 100 81.8151
85.5417 100 82.0137
86.5474 100 82.6535
87.6127 100 82.8644
88.7385 100 82.9129
89.8529 100 83.2918
91.7915 100 82.7247
93.2373 100 82.7155
94.2937 100 82.0983
94.9988 100 81.3345
95.8595 100 79.3093
98.1656 100 79.815
98.6681 100 78.8174
99.265 100 77.8218
100.66 100 76.2889
101.9 100 75.3213
103.053 100 75.4181
104.598 100 75.1832
106.075 100 74.6349
107.063 100 74.3125
108.612 100 74.5253
109.883 100 74.5689
110.732 100 73.8217
110.661 100 75.495
111.539 100 74.7106
112.954 100 74.7106
113.831 100 75.495
113.76 100 73.8217
114.609 100 74.5689
115.88 100 74.5253
117.429 100 74.3125
118.418 100 74.6349
119.895 100 75.1832
121.439 100 75.4181
122.592 100 75.3213
123.832 100 76.2888
125.227 100 77.8218
125.824 100 78.8174
126.327 100 79.815
128.633 100 79.3093
129.494 100 81.3345
130.199 100 82.0983
131.255 100 82.7155
132.701 100 82.7247
134.639 100 83.2918
135.754 100 82.9129
136.88 100 82.8644
137.945 100 82.6535
138.951 100 82.0137
140.106 100 81.8151
141.159 100 81.8767
142.292 100 81.8487
143.445 100 81.7784
144.508 100 82.3394
145.5 100 81.9173
79.1086 100 83.0544
80.1239 100 83.4415
81.1573 100 82.9215
81.879 100 83.7497
82.6338 100 82.8996
83.6913 100 83.0008
84.7162 100 82.8364
85.6105 100 83.3955
86.729 100 83.8559
87.8476 100 84.075
89.0755 100 84.1694
90.2048 100 84.3326
91.0634 100 83.634
92.3276 100 83.6931
93.611 100 83.7895
94.549 100 83.249
96.6197 100 80.0745
99.1912 100 79.7037
99.9062 100 78.795
100.42 100 77.656
101.418 100 77.1037
102.304 100 76.3699
103.919 100 76.1888
105.598 100 75.6524
106.709 100 75.6025
107.781 100 75.2739
107.956 100 76.4511
109.582 100 76.0875
110.601 100 76.5891
111.605 100 76.0891
112.888 100 76.0891
113.892 100 76.5892
114.91 100 76.0875
116.537 100 76.4511
116.711 100 75.2739
117.783 100 75.6025
118.894 100 75.6524
120.574 100 76.1888
122.188 100 76.3699
123.075 100 77.1037
124.073 100 77.656
124.586 100 78.795
125.301 100 79.7037
127.873 100 80.0745
129.943 100 83.249
130.881 100 83.7895
132.165 100 83.6931
133.429 100 83.634
134.288 100 84.3326
135.417 100 84.1694
136.645 100 84.075
137.763 100 83.8559
138.882 100 83.3955
139.776 100 82.8364
140.801 100 83.0008
141.859 100 82.8996
142.613 100 83.7497
143.335 100 82.9215
144.368 100 83.4415
145.384 100 83.0544
78.7587 100 84.3163
79.9267 100 84.7492
80.901 100 84.2076
82.1362 100 84.8237
83.2319 100 84.095
84.3407 100 83.9081
85.1612 100 84.6598
86.1561 100 84.9097
87.2719 100 85.0197
88.3458 100 85.1247
89.4864 100 85.1503
90.557 100 85.3449
91.814 100 84.9255
93.0406 100 84.7057
94.4484 100 84.4347
95.6978 100 82.598
96.4969 100 81.3276
97.5121 100 80.7336
100.242 100 80.0676
100.999 100 78.6987
[...]
POINT_DATA 1600
SCALARS mass double
LOOKUP_TABLE default
1
1
1
1
1
1
1
1
1
1
1
1
1
1
1
1
1
1
1
1
1
1
1
1
1
1
1
1
1
1
1
1
1
1
1
1
1
1
1
1
1
1
1
1
1
1
1
1
1
1
1
1
1
1
1
1
1
1
1
1
1
1
1
1
1
1
1
1
1
1
1
1
1
1
1
1
1
1
1
1
1
1
1
1
1
1
1
1
1
1
1
1
1
1
1
1
1
1
1
1
1
1
1
1
1
1
1
1
1
1
1
1
1
1
1
1
1
1
1
1
1
1
1
1
1
1
1
1
1
1
1
1
1
1
1
1
1
1
1
1
1
1
1
1
1
1
1
1
1
1
1
1
1
1
1
1
1
1
1
1
1
1
1
1
1
1
1
1
1
1
1
1
1
1
1
1
1
1
1
1
1
1
1
1
1
1
1
1
1
1
1
1
1
1
1
1
1
1
1
1
1
1
1
1
1
1
1
1
1
1
1
1
1
1
1
1
1
1
1
1
1
1
1
1
1
1
1
1
1
1
1
1
1
1
1
1
1
1
1
1
1
1
1
1
1
1
1
1
1
1
1
1
1
1
1
1
1
1
1
1
1
1
1
1
1
1
1
1
1
1
1
1
1
1
1
1
1
1
1
1
1
1
1
1
1
1
1
1
1
1
1
1
1
1
1
1
1
1
1
1
1
1
1
1
1
1
1
1
1
1
1
1
1
1
1
1
1
1
1
1
1
1
1
1
1
1
1
1
1
1
1
1
1
1
1
1
1
1
1
1
1
1
1
1
1
1
1
1
1
1
1
1
1
1
1
1
1
1
1
1
1
1
1
1
1
1
1
1
1
1
1
1
1
1
1
1
1
1
1
1
1
1
1
1
1
1
1
1
1
1
1
1
1
1
1
1
1
1
1
1
1
1
1
1
1
1
1
1
1
1
1
1
1
1
1
1
1
1
1
1
1
1
1
1
1
1
1
1
1
1
1
1
1
1
1
1
1
1
1
1
1
1
1
1
1
1
1
1
1
1
1
1
1
1
1
1
1
1
1
1
1
1
1
1
1
1
1
1
1
1
1
1
1
1
1
1
1
1
1
1
1
1
1
1
1
1
1
1
1
1
1
1
1
1
1
1
1
1
1
1
1
1
1
1
1
1
1
1
1
1
1
1
1
1
1
1
1
1
1
1
1
1
1
1
1
1
1
1
1
1
1
1
1
1
1
1
1
1
1
1
1
1
1
1
1
1
1
1
1
1
1
1
1
1
1
1
1
1
1
1
1
1
1
1
1
1
1
1
1
1
1
1
1
1
1
1
1
1
1
1
1
1
1
1
1
1
1
1
1
1
1
1
1
1
1
1
1
1
1
1
1
1
1
1
1
1
1
1
1
1
1
1
1
1
1
1
1
1
1
1
1
1
1
1
1
1
1
1
1
1
1
1
1
1
1
1
1
1
1
1
1
1
1
1
1
1
1
1
1
1
1
1
1
1
1
1
1
1
1
1
1
1
1
1
1
1
1
1
1
1
1
1
1
1
1
1
1
1
1
1
1
1
1
1
1
1
1
1
1
1
1
1
1
1
1
1
1
1
1
1
1
1
1
1
1
1
1
1
1
1
1
1
1
1
1
1
1
1
1
1
1
1
1
1
1
1
1
1
1
1
1
1
1
1
1
1
1
1
1
1
1
1
1
1
1
1
1
1
1
1
1
1
1
1
1
1
1
1
1
1
1
1
1
1
1
1
1
1
1
1
1
1
1
1
1
1
1
1
1
1
1
1
1
1
1
1
1
1
1
1
1
1
1
1
1
1
1
1
1
1
1
1
1
1
1
1
1
1
1
1
1
1
1
1
1
1
1
1
1
1
1
1
1
1
1
1
1
1
1
1
1
1
1
1
1
1
1
1
1
1
1
1
1
1
1
1
1
1
1
1
1
1
1
1
1
1
1
1
1
1
1
1
1
1
1
1
1
1
1
1
1
1
1
1
1
1
1
1
1
1
1
1
1
1
1
1
1
1
1
1
1
1
1
1
1
1
1
1
1
1
1
1
1
1
1
1
1
1
1
1
1
1
1
1
1
1
1
1
1
1
1
1
1
1
1
1
1
1
1
1
1
1
1
1
1
1
1
1
1
1
1
1
1
1
1
1
1
1
1
1
1
1
1
1
1
1
1
1
1
1
1
1
1
1
1
1
1
1
1
1
1
1
1
1
1
1
1
1
1
1
1
1
1
1
1
1
1
1
1
1
1
1
1
1
1
1
1
1
1
1
1
1
1
1
1
1
1
1
1
1
1
1
1
1
1
1
1
1
1
1
1
1
1
1
1
1
1
1
1
1
1
1
1
1
1
1
1
1
1
1
1
1
1
1
1
1
1
1
1
1
1
1
1
1
1
1
1
1
1
1
1
1
1
1
1
1
1
1
1
1
1
1
1
1
1
1
1
1
1
1
1
1
1
1
1
1
1
1
1
1
1
1
1
1
1
1
1
1
1
1
1
1
1
1
1
1
1
1
1
1
1
1
1
1
1
1
1
1
1
1
1
1
1
1
1
1
1
1
1
1
1
1
1
1
1
1
1
1
1
1
1
1
1
1
1
1
1
1
1
1
1
1
1
1
1
1
1
1
1
1
1
1
1
1
1
1
1
1
1
1
1
1
1
1
1
1
1
1
1
1
1
1
1
1
1
1
1
1
1
1
1
1
1
1
1
1
1
1
1
1
1
1
1
1
1
1
1
1
1
1
1
1
1
1
1
1
1
1
1
1
1
1
1
1
1
1
1
1
1
1
1
1
1
1
1
1
1
1
1
1
1
1
1
1
1
1
1
1
1
1
1
1
1
1
1
1
1
1
1
1
1
1
1
1
1
1
1
1
1
1
1
1
1
1
1
1
1
1
1
1
1
1
1
1
1
1
1
1
1
1
1
1
1
1
1
1
1
1
1
1
1
1
1
1
1
1
1
1
1
1
1
1
1
1
1
1
1
1
1
1
1
1
1
1
1
1
1
1
1
1
1
1
1
1
1
1
1
1
1
1
1
1
1
1
1
1
1
1
1
1
1
1
1
1
1
1
1
1
1
1
1
1
1
1
1
1
1
1
1
1
1
1
1
1
1
1
1
1
1
1
1
1
1
1
1
1
1
1
1
1
1
1
1
1
1
1
1
1
1
1
1
1
1
1
1
1
1
1
1
1
1
1
1
1
1
1
1
1
1
1
1
1
1
1
1
1
1
1
1
1
1
1
1
1
1
1
1
1
1
1
1
1
1
1
1
1
1
1
1
1
1
1
1
1
1
1
1
1
1
1
1
1
1
1
1
1
1
1
1
1
1
1
1
1
1
1
1
1
1
1
1
1
1
1
1
1
1
1
1
1
1
1
1
1
1
1
1
1
1
1
1
1
1
1
1
1
1
1
1
1
1
1
1
1
1
1
1
1
1
1
1
1
1
1
1
1
1
1
1
1
1
1
1
1
1
1
1
1
1
1
1
1
1
1
1
1
1
1
1
1
1
1
1
1
1
1
1
1
1
1
1
1
1
1
1
1
1
1
1
1
1
1
1
1
1
1
1
1
1
1
1
1
1
1
1
1
1
1
1
1
1
1
1
1
1
1
1
1
1
1
VECTORS force double
12.0706 0 4.75261
-15.4294 0 7.73492
-2.61601 0 20.5182
-7.99612 0 -2.56006
-4.11061 0 20.9133
6.46329 0 19.8391
-6.79075 0 23.0726
11.9028 0 5.23224
-15.3336 0 -23.2975
-10.8315 0 15.9339
-18.9585 0 30.4041
1.95005 0 -16.0871
36.6545 0 -6.58696
-5.27547 0 36.4526
21.12 0 -17.999
0.662066 0 -1.54367
-1.27806 0 10.435
-0.647652 0 1.73653
-3.63339 0 11.0871
-5.43745 0 -0.828332
8.39333 0 15.8462
-8.34656 0 13.9682
8.06332 0 -26.2232
-21.037 0 -9.39361
4.36303 0 16.9338
2.84127 0 4.25927
0.506336 0 -10.1133
-7.1286 0 13.4464
3.99732 0 4.23143
5.91753 0 12.9148
-5.91753 0 12.9148
-3.9973 0 4.23145
7.12857 0 13.4464
-0.506374 0 -10.1133
-2.84127 0 4.25927
-4.36303 0 16.9338
21.037 0 -9.39361
-8.06332 0 -26.2232
8.34656 0 13.9682
-8.39332 0 15.8462
5.43752 0 -0.828191
3.63339 0 11.0871
0.647832 0 1.73643
1.27788 0 10.4351
-0.662077 0 -1.54367
-21.12 0 -17.999
5.27548 0 36.4526
-36.6545 0 -6.58696
-1.95006 0 -16.0871
18.9585 0 30.4041
10.8315 0 15.9339
15.3336 0 -23.2975
-11.9028 0 5.23224
6.79075 0 23.0726
-6.4633 0 19.8391
4.11061 0 20.9133
7.99612 0 -2.56006
2.61601 0 20.5182
15.4294 0 7.73492
-12.0706 0 4.75261
16.328 0 -11.6206
-30.2802 0 -23.3434
-16.9499 0 -55.8435
13.8316 0 10.2475
-0.93718 0 -2.29711
-32.5833 0 -90.2507
-49.4018 0 -26.055
9.5402 0 -33.9402
25.717 0 42.6698
-14.5502 0 0.153003
12.7666 0 10.4826
26.7323 0 -16.9685
-8.81379 0 16.9805
-27.891 0 -5.48994
28.403 0 -5.51088
-6.16877 0 8.79882
3.88277 0 -4.37789
5.76656 0 6.79382
-0.598732 0 -5.15108
10.2152 0 10.9517
14.7793 0 -0.467783
0.702905 0 0.669547
-2.24994 0 11.146
-0.0712169 0 -9.84386
11.1853 0 -4.48153
-12.2347 0 -8.42686
3.49252 0 -3.93851
17.0773 0 16.1866
10.386 0 1.43499
6.13272 0 11.372
-6.1327 0 11.3719
-10.386 0 1.43502
-17.0773 0 16.1865
-3.4925 0 -3.9385
12.2347 0 -8.42685
-11.1853 0 -4.48152
0.0712166 0 -9.84386
2.25004 0 11.1463
-0.702903 0 0.669546
-14.7793 0 -0.467782
-10.2151 0 10.9521
0.598756 0 -5.15112
-5.76657 0 6.79382
-3.88275 0 -4.37791
6.16876 0 8.79881
-28.403 0 -5.51089
27.891 0 -5.48993
8.81377 0 16.9805
-26.7323 0 -16.9684
-12.7666 0 10.4826
14.5503 0 0.152999
-25.717 0 42.6698
-9.54021 0 -33.9402
49.4018 0 -26.055
32.5832 0 -90.2507
0.937181 0 -2.29711
-13.8316 0 10.2476
16.9499 0 -55.8435
30.2802 0 -23.3434
-16.328 0 -11.6206
13.7675 0 16.8299
-18.1166 0 23.5909
60.258 0 -16.5974
23.8496 0 59.9799
-4.74508 0 -18.7443
-46.4564 0 -84.4616
31.6851 0 82.4186
20.9365 0 40.0827
6.81144 0 44.3799
-11.7046 0 -16.7196
-4.24791 0 -0.52116
5.291 0 37.7734
-6.40229 0 -25.9342
-5.20948 0 -11.5093
-20.9209 0 -14.2753
-0.801552 0 7.65097
-29.509 0 12.0777
46.2037 0 -4.42677
-17.7634 0 -68.0439
1.67337 0 18.986
0.841267 0 -1.98451
8.53981 0 -2.27337
10.9082 0 5.57726
-20.8785 0 5.1531
3.13891 0 14.3667
-36.6872 0 -33.5761
3.67997 0 3.12713
33.1402 0 -32.2756
-109.457 0 24.715
73.2762 0 -64.9219
-73.2763 0 -64.922
109.457 0 24.7152
-33.137 0 -32.2714
-3.68006 0 3.12718
36.6872 0 -33.5755
-3.13918 0 14.3672
20.8772 0 5.15354
-10.9077 0 5.57693
-8.53998 0 -2.27347
-0.841567 0 -1.985
-1.67348 0 18.9856
17.7634 0 -68.0432
-46.2037 0 -4.42668
29.509 0 12.0776
0.80154 0 7.65103
20.9208 0 -14.2753
5.20942 0 -11.5092
6.40218 0 -25.9342
-5.29101 0 37.7734
4.24793 0 -0.521165
11.7046 0 -16.7196
-6.81144 0 44.3799
-20.9365 0 40.0827
-31.6851 0 82.4186
46.4564 0 -84.4616
4.74508 0 -18.7443
-23.8496 0 59.9799
-60.258 0 -16.5974
18.1166 0 23.5909
-13.7675 0 16.8299
13.8923 0 9.68519
6.74634 0 -20.5502
-8.07426 0 -0.313213
0.0953883 0 -3.32152
13.0618 0 40.3916
35.3488 0 62.3642
-12.2133 0 -45.6369
18.699 0 -6.8729
-16.307 0 6.78748
2.28707 0 -0.429286
-4.99001 0 -6.71083
-20.295 0 -6.8539
-21.1586 0 10.9427
-90.3243 0 40.0368
-141.784 0 -117.374
28.4144 0 -71.7972
4.29867 0 -7.6297
-14.9191 0 -5.08699
24.7246 0 85.866
-14.7732 0 10.7932
28.8923 0 -23.929
-13.2424 0 -1.04796
-26.6226 0 -1.43993
19.7177 0 -11.0312
-19.7121 0 13.6112
3.82302 0 44.5607
-21.1171 0 12.6402
9.00436 0 1.11542
-3.1076 0 13.4529
20.3603 0 2.50188
-20.3602 0 2.50182
3.10856 0 13.4526
-9.00335 0 1.11601
21.1174 0 12.6396
-3.82686 0 44.5546
19.7134 0 13.6123
-19.718 0 -11.0309
26.6227 0 -1.44004
13.2427 0 -1.04747
-28.8932 0 -23.9284
14.774 0 10.7936
-24.7243 0 85.8655
14.9187 0 -5.08692
-4.29863 0 -7.62968
-28.4143 0 -71.7972
141.784 0 -117.374
90.3242 0 40.0368
21.1586 0 10.9427
20.2951 0 -6.85386
4.99001 0 -6.71085
-2.28707 0 -0.429278
16.307 0 6.78748
-18.699 0 -6.8729
12.2134 0 -45.637
-35.3488 0 62.3642
-13.0618 0 40.3916
-0.0953877 0 -3.32152
8.07426 0 -0.313217
-6.74634 0 -20.5502
-13.8923 0 9.68519
-7.41911 0 -7.57255
37.2887 0 -5.04365
0.86532 0 -24.3909
4.68789 0 -0.657276
-86.1216 0 12.2947
46.4379 0 30.0398
10.8572 0 34.0574
8.00964 0 -0.0178823
0.669738 0 5.27435
8.42641 0 -9.89081
-8.5721 0 14.7424
6.60056 0 16.9537
-36.5358 0 4.41395
2.11341 0 -30.7165
238.55 0 72.0158
36.2287 0 -2.13453
-5.7752 0 11.6633
10.8697 0 -29.1493
-84.418 0 21.8997
78.6471 0 -14.0889
-49.6569 0 -40.4978
-17.9917 0 1.11532
10.8131 0 -9.87004
13.2493 0 5.87125
-4.23777 0 -4.58919
25.5432 0 -8.51486
-16.9243 0 12.537
-6.15548 0 3.72079
-2.69806 0 4.91843
-3.95702 0 2.21762
3.95619 0 2.21756
2.69829 0 4.91842
6.15809 0 3.72158
16.9232 0 12.5354
-25.5419 0 -8.51391
4.23692 0 -4.58942
-13.2489 0 5.87145
-10.813 0 -9.86947
17.9933 0 1.11341
49.6565 0 -40.4978
-78.6465 0 -14.09
84.4188 0 21.8998
-10.8694 0 -29.1496
5.77495 0 11.6634
-36.2286 0 -2.13459
-238.549 0 72.0158
-2.1134 0 -30.7165
36.5356 0 4.41394
-6.60057 0 16.9538
8.57211 0 14.7424
-8.42636 0 -9.8908
-0.669749 0 5.27435
-8.00963 0 -0.0178723
-10.8573 0 34.0574
-46.4379 0 30.0398
86.1216 0 12.2947
-4.68789 0 -0.657279
-0.86532 0 -24.3909
-37.2887 0 -5.04365
7.41911 0 -7.57255
-34.0326 0 10.4844
24.2543 0 -94.3456
7.9114 0 38.8611
-77.1566 0 -12.2608
22.3421 0 10.8505
54.2048 0 -15.2494
0.981453 0 -14.0464
-15.5644 0 -9.73459
23.5965 0 -11.2858
-17.9365 0 -32.883
-107.538 0 -28.0205
112.327 0 24.6485
-34.992 0 -7.13893
47.7125 0 3.51353
48.6786 0 29.2785
-131.414 0 -1.13161
-86.8804 0 -71.1747
13.6659 0 2.78857
-3.23781 0 39.5632
-21.8485 0 -9.47977
10.7641 0 3.56618
80.9333 0 -17.5229
-2.46042 0 14.5663
-37.1718 0 33.0836
29.9923 0 -91.0989
-8.5563 0 18.4727
0.93457 0 -8.32045
-23.3669 0 -78.1164
10.5905 0 10.7842
21.6651 0 2.16943
-21.666 0 2.16949
-10.5924 0 10.784
23.3626 0 -78.1209
-0.934866 0 -8.32048
8.55525 0 18.4715
-29.9845 0 -91.0987
37.1657 0 33.0802
2.45773 0 14.5694
-80.9324 0 -17.5247
-10.7638 0 3.56523
21.848 0 -9.47899
3.23751 0 39.5632
-13.6657 0 2.78831
86.8807 0 -71.1749
131.413 0 -1.13121
-48.6784 0 29.2785
-47.7124 0 3.51353
34.992 0 -7.13895
-112.327 0 24.6485
107.538 0 -28.0204
17.9364 0 -32.883
-23.5965 0 -11.2858
15.5644 0 -9.73459
-0.981457 0 -14.0464
-54.2049 0 -15.2494
-22.3421 0 10.8505
77.1566 0 -12.2608
-7.91139 0 38.8611
-24.2543 0 -94.3456
34.0326 0 10.4844
-15.7454 0 -5.55689
39.1142 0 88.8234
-11.5161 0 -2.80505
-2.69337 0 -9.07452
-39.2174 0 0.895017
41.8292 0 -9.37668
2.06017 0 9.10454
-36.6905 0 12.8292
17.4529 0 8.66238
23.9687 0 44.8249
-4.91508 0 -14.6175
-9.42651 0 -17.3423
14.7714 0 15.5631
-49.839 0 48.5793
38.5707 0 -43.3746
38.1078 0 79.7123
11.4657 0 74.3209
-29.4665 0 -65.6171
0.732386 0 7.7854
11.2474 0 -16.3799
-37.7844 0 38.1356
8.94381 0 14.4759
-10.1464 0 5.96774
-49.1662 0 85.4136
53.9287 0 -13.5993
13.6953 0 -15.5645
16.7897 0 84.6144
5.37608 0 -4.66549
-11.8017 0 -22.422
-9.02875 0 7.41834
9.027 0 7.41757
11.8079 0 -22.4096
-5.3681 0 -4.66382
-16.793 0 84.6175
-13.6957 0 -15.565
-53.9308 0 -13.5977
49.169 0 85.4156
10.147 0 5.96804
-8.94327 0 14.4769
37.7838 0 38.1356
-11.2502 0 -16.3779
-0.732294 0 7.78557
29.4666 0 -65.6177
-11.465 0 74.3214
-38.1075 0 79.7117
-38.5708 0 -43.3747
49.8392 0 48.5794
-14.7715 0 15.5631
9.4265 0 -17.3423
4.91508 0 -14.6175
-23.9687 0 44.8249
-17.4529 0 8.66238
36.6905 0 12.8292
-2.06017 0 9.10454
-41.8292 0 -9.37664
39.2174 0 0.895023
2.69336 0 -9.07452
11.5161 0 -2.80506
-39.1143 0 88.8233
15.7454 0 -5.55689
-12.6496 0 -0.678161
9.35611 0 8.42404
-15.2072 0 -7.03416
29.2174 0 -7.17615
-28.8499 0 -4.17937
-27.7699 0 2.23827
33.3494 0 -10.8958
39.2015 0 23.9891
-2.91097 0 -1.83263
14.9514 0 -13.4952
-22.6448 0 -35.9406
-3.10881 0 -21.0433
7.20693 0 -15.751
11.9862 0 15.3755
-44.242 0 -33.797
22.8732 0 -9.42592
17.7795 0 13.889
93.2995 0 54.7662
-21.242 0 0.0499023
-2.93343 0 10.9925
5.90879 0 6.2438
10.0472 0 2.07565
-7.24016 0 -9.61993
-5.84908 0 -36.944
1.18883 0 -8.50812
-6.14644 0 1.15071
-6.37141 0 -24.4389
11.2103 0 3.14334
0.461274 0 25.5445
15.2132 0 -9.9644
-15.2195 0 -10.004
-0.450525 0 25.5288
-11.2166 0 3.14645
6.37395 0 -24.449
6.14604 0 1.15345
-1.18858 0 -8.50882
5.84836 0 -36.9519
7.2396 0 -9.61896
-10.0481 0 2.0752
-5.90628 0 6.24285
2.93331 0 10.9917
21.2422 0 0.0500484
-93.3001 0 54.7665
-17.7795 0 13.8889
-22.8733 0 -9.42596
44.2416 0 -33.7962
-11.9862 0 15.3755
-7.207 0 -15.751
3.10883 0 -21.0433
22.6448 0 -35.9406
-14.9514 0 -13.4952
2.91096 0 -1.83263
-39.2015 0 23.989
-33.3494 0 -10.8958
27.7699 0 2.23827
28.8499 0 -4.17937
-29.2174 0 -7.17614
15.2072 0 -7.03417
-9.35609 0 8.42403
12.6496 0 -0.678159
22.076 0 2.94171
9.30424 0 -5.75665
-5.14439 0 -44.6467
4.90506 0 13.4467
-14.2261 0 -1.11226
6.83108 0 1.85935
-29.7881 0 -43.0283
72.7797 0 19.1359
-31.8865 0 1.45415
18.4396 0 -13.7412
-17.5635 0 55.2104
34.2832 0 -11.5841
3.76957 0 2.95092
-18.5821 0 20.4373
34.5993 0 22.7239
-5.69348 0 3.73311
7.12117 0 -3.49945
-10.4817 0 10.9136
-87.7378 0 13.7768
13.8197 0 1.12283
7.00911 0 3.05181
-4.67294 0 -17.7747
-13.7353 0 -27.2684
1.96936 0 37.1768
-2.07536 0 16.0838
-72.1206 0 -3.99864
14.4375 0 22.4831
-3.64148 0 -6.26255
3.95073 0 -29.8056
-7.40022 0 6.5045
7.39385 0 6.53938
-3.93617 0 -29.8115
3.6349 0 -6.25886
-14.4425 0 22.4949
72.1558 0 -4.00052
2.07261 0 16.085
-1.96861 0 37.1829
13.7388 0 -27.2711
4.6735 0 -17.776
-7.00925 0 3.05185
-13.8201 0 1.12305
87.7415 0 13.7767
10.4814 0 10.9137
-7.12117 0 -3.49952
5.69345 0 3.73311
-34.5987 0 22.7234
18.582 0 20.4371
-3.76955 0 2.95092
-34.283 0 -11.584
17.5635 0 55.2104
-18.4396 0 -13.7413
31.8865 0 1.45417
-72.7796 0 19.1359
29.788 0 -43.0283
-6.83108 0 1.85934
14.2261 0 -1.11227
-4.90505 0 13.4467
5.14437 0 -44.6467
-9.30425 0 -5.75666
-22.076 0 2.94171
-3.72789 0 -2.45841
10.8579 0 -9.68245
2.03742 0 58.8693
17.6457 0 -18.4536
-8.09807 0 3.91641
-23.9839 0 7.10704
-3.84617 0 -2.67838
-16.8763 0 -3.7338
27.7964 0 -12.0518
7.3513 0 8.20608
19.753 0 -3.25184
-95.22 0 12.8067
24.648 0 13.1052
-27.5062 0 -50.9138
22.9412 0 -24.3968
-38.5144 0 -56.0369
26.0759 0 29.2345
-4.82053 0 -21.1858
-13.2452 0 -40.7312
-50.3715 0 -53.067
99.8025 0 -22.8013
-17.9333 0 0.115053
6.61791 0 17.9123
8.45862 0 27.5292
-62.2269 0 -103.377
-4.73055 0 10.166
-31.4505 0 -67.4057
65.4664 0 4.13516
-61.3562 0 62.5145
58.9601 0 -24.3822
-58.9373 0 -24.3627
61.326 0 62.5044
-65.4957 0 4.12696
31.4511 0 -67.3846
4.731 0 10.1653
62.227 0 -103.372
-8.45871 0 27.5315
-6.61951 0 17.9119
17.933 0 0.117103
-99.8067 0 -22.8014
50.3684 0 -53.0626
13.2435 0 -40.7291
4.82091 0 -21.1868
-26.0758 0 29.2344
38.5144 0 -56.037
-22.9415 0 -24.3966
27.5065 0 -50.9138
-24.6481 0 13.1051
95.2199 0 12.8065
-19.753 0 -3.25182
-7.35128 0 8.20607
-27.7964 0 -12.0519
16.8763 0 -3.7338
3.84616 0 -2.67837
23.984 0 7.10707
8.09804 0 3.9164
-17.6457 0 -18.4536
-2.03741 0 58.8692
-10.8579 0 -9.68244
3.72788 0 -2.45842
18.3754 0 10.5623
1.11672 0 0.0455683
2.649 0 -3.42009
-3.20051 0 13.3492
-30.0049 0 7.59503
13.8805 0 -4.93453
23.043 0 18.7603
-19.7337 0 5.29492
-53.7254 0 -36.8983
1.55535 0 -0.581675
2.90965 0 21.7565
5.09762 0 -56.6088
45.7197 0 -13.5467
36.9265 0 65.0821
0.876237 0 42.8923
12.0535 0 -28.0761
-16.4855 0 25.6248
-4.67704 0 0.498753
11.5107 0 14.726
-10.7479 0 -13.2271
3.5423 0 4.83505
-14.7808 0 13.4929
13.8537 0 1.98796
-10.5337 0 -2.27772
16.2724 0 8.07648
68.6356 0 73.3701
-6.73101 0 -1.57403
6.50704 0 -14.2435
-10.6393 0 -4.89095
-5.01823 0 -3.71933
5.02038 0 -3.7214
10.6364 0 -4.88878
-6.50876 0 -14.2422
6.72693 0 -1.58006
-68.6325 0 73.3647
-16.2708 0 8.07436
10.5314 0 -2.27807
-13.8542 0 1.98586
14.7819 0 13.4937
-3.54244 0 4.8342
10.748 0 -13.2271
-11.5112 0 14.727
4.67708 0 0.498762
16.4855 0 25.6248
-12.0534 0 -28.0761
-0.8761 0 42.8921
-36.9265 0 65.0821
-45.7196 0 -13.5465
-5.09753 0 -56.609
-2.90964 0 21.7565
-1.55535 0 -0.581668
53.7257 0 -36.8983
19.7337 0 5.29491
-23.043 0 18.7603
-13.8805 0 -4.93448
30.005 0 7.59501
3.20051 0 13.3493
-2.64904 0 -3.42009
-1.11671 0 0.0455462
-18.3754 0 10.5623
-35.3571 0 -30.3278
3.87331 0 17.5927
39.4407 0 -47.5841
2.7953 0 -10.5041
-20.4159 0 -11.7846
12.5617 0 0.212619
-16.3836 0 -139.667
-6.09996 0 -41.5571
-96.5928 0 19.5213
33.2898 0 -15.3162
-42.3121 0 -65.9052
4.38012 0 20.3408
-4.13351 0 -28.3897
4.42775 0 -89.5183
-13.9694 0 -14.5933
-8.50644 0 -21.8512
-6.75618 0 1.13456
12.6509 0 13.9016
0.297712 0 0.166467
17.7956 0 0.85032
80.3269 0 93.3016
0.307251 0 -3.21821
-5.31941 0 -31.059
-50.0865 0 23.9295
-55.502 0 -94.3686
-0.140137 0 -4.03229
2.44939 0 -12.7983
-5.72889 0 13.9244
46.3641 0 81.1013
8.46961 0 -12.9946
-8.4703 0 -12.995
-46.3575 0 81.0889
5.72731 0 13.9267
-2.45039 0 -12.7943
0.138026 0 -4.02858
55.5027 0 -94.376
50.0997 0 23.9331
5.31996 0 -31.0608
-0.307655 0 -3.21825
-80.3212 0 93.2954
-17.7958 0 0.850363
-0.296611 0 0.166255
-12.6512 0 13.9018
6.75613 0 1.13453
8.50622 0 -21.8508
13.9694 0 -14.5934
-4.42761 0 -89.5181
4.1334 0 -28.39
-4.38008 0 20.3408
42.3121 0 -65.9051
-33.29 0 -15.3161
96.5926 0 19.5213
6.09993 0 -41.5571
16.3834 0 -139.667
-12.5618 0 0.212608
20.416 0 -11.7846
-2.7953 0 -10.5041
-39.4407 0 -47.584
-3.87327 0 17.5927
35.3571 0 -30.3278
-6.46474 0 -9.03548
-7.1547 0 35.5501
-14.8129 0 12.147
1.3187 0 22.9666
-9.88072 0 -9.12029
-29.2177 0 13.1112
-65.1309 0 122.18
90.2958 0 22.0529
-30.1254 0 -8.80602
125.513 0 45.1357
-81.4145 0 14.0752
120.794 0 56.6197
-24.2828 0 60.5613
-1.87055 0 87.5916
13.9666 0 37.0174
15.0161 0 -64.1617
-53.9948 0 27.9685
-25.1424 0 -20.3361
4.63659 0 -16.7406
-25.5163 0 -34.5084
12.6864 0 4.94938
1.89373 0 1.18093
-22.4342 0 -5.02227
9.47672 0 26.5359
105.665 0 68.7727
-95.5973 0 -135.507
-63.9507 0 11.8103
74.9591 0 20.4964
-7.49013 0 -3.73516
-2.8419 0 -19.7174
2.83914 0 -19.7084
7.49055 0 -3.73678
-74.9601 0 20.4963
63.953 0 11.8083
95.6077 0 -135.514
-105.678 0 68.7744
-9.47726 0 26.539
22.4357 0 -5.02489
-1.89392 0 1.18101
-12.687 0 4.9492
25.5178 0 -34.5077
-4.63686 0 -16.7405
25.1424 0 -20.3372
53.9956 0 27.9687
-15.0168 0 -64.1631
-13.9664 0 37.0175
1.87025 0 87.5915
24.2828 0 60.5615
-120.795 0 56.6197
81.4147 0 14.0752
-125.513 0 45.1357
30.1255 0 -8.80604
-90.2957 0 22.0526
65.131 0 122.18
29.2177 0 13.1112
9.88073 0 -9.1203
-1.31868 0 22.9666
14.8129 0 12.147
7.15479 0 35.55
6.46471 0 -9.03549
4.08406 0 -7.54734
11.4121 0 -5.96669
4.16399 0 -4.05602
1.8024 0 11.6374
13.0325 0 30.7389
13.1127 0 -1.3618
9.91209 0 -5.41315
-42.2621 0 -94.6757
24.4609 0 26.492
2.8764 0 0.973526
-8.30999 0 -1.92366
-56.5127 0 -26.2032
2.07548 0 -23.4337
36.2184 0 -9.26631
-22.5607 0 53.3079
22.6766 0 13.1489
2.91601 0 3.49093
58.611 0 7.93473
25.3548 0 27.9293
-18.0085 0 31.6814
-11.6525 0 -20.2117
2.00178 0 11.6063
-1.04419 0 -13.2103
-11.3959 0 -40.6604
0.985044 0 9.70513
-44.3542 0 -48.2132
113.358 0 136.58
-35.3879 0 -16.0951
-20.6539 0 0.33055
9.23404 0 6.92769
-9.23596 0 6.92966
20.6578 0 0.32862
35.3878 0 -16.0957
-113.363 0 136.592
44.3591 0 -48.2287
-0.98698 0 9.70741
11.3961 0 -40.6627
1.04614 0 -13.2072
-2.00349 0 11.6048
11.6537 0 -20.2127
18.0076 0 31.6808
-25.3551 0 27.9293
-58.6115 0 7.93529
-2.91589 0 3.49101
-22.6767 0 13.1489
22.5613 0 53.3094
-36.2181 0 -9.26645
-2.07561 0 -23.4337
56.5126 0 -26.2032
8.31 0 -1.92361
-2.87641 0 0.973521
-24.4609 0 26.492
42.2621 0 -94.6758
-9.91211 0 -5.41316
-13.1127 0 -1.36178
-13.0324 0 30.7389
-1.80238 0 11.6374
-4.16399 0 -4.05601
-11.4121 0 -5.96669
-4.08407 0 -7.54733
8.75922 0 15.8257
21.1009 0 23.7603
-9.21934 0 7.59018
2.42928 0 -7.83358
-6.72882 0 -18.47
-13.4718 0 12.6161
9.91192 0 7.11032
-10.1721 0 -2.74336
48.8812 0 -5.59441
-72.2226 0 17.7823
52.0589 0 -19.794
25.2406 0 2.63232
-13.9967 0 44.098
-8.86309 0 4.36499
-76.0434 0 -55.3028
9.6401 0 -28.1942
31.2043 0 -1.52514
6.8252 0 7.78099
-93.3559 0 77.8192
90.0328 0 -112.657
35.1002 0 25.0344
-14.9889 0 -22.6339
-6.21485 0 15.4228
17.4634 0 -33.8302
-1.81178 0 -6.68949
3.28028 0 67.7311
13.8618 0 -1.75442
28.3054 0 2.42831
-9.03185 0 -2.70449
-8.21973 0 20.6217
8.22107 0 20.6132
9.03248 0 -2.70949
-28.3064 0 2.42882
-13.8583 0 -1.75738
-3.29305 0 67.7454
1.81349 0 -6.69184
-17.4631 0 -33.8316
6.21385 0 15.4281
14.9864 0 -22.6354
-35.1015 0 25.0354
-90.0341 0 -112.659
93.3575 0 77.8221
-6.82493 0 7.78112
-31.2043 0 -1.52529
-9.64 0 -28.1939
76.0431 0 -55.303