# vtk DataFile Version 3.0
SiWiRVisFile
ASCII
DATASET UNSTRUCTURED_GRID
POINTS 1600 DOUBLE
76.6584 100 72.584
76.8836 100 73.6877
77.9435 100 74.1928
79.9383 100 73.973
80.8302 100 74.5092
81.8453 100 74.9491
83.8648 100 74.7921
84.8604 100 75.2813
85.8511 100 75.6763
84.943 100 74.2229
91.3232 100 73.2911
91.2842 100 71.8821
90.3979 100 74.1271
89.6581 100 71.6439
88.7662 100 71.0046
91.1903 100 63.5228
92.2699 100 64.4092
94.4484 100 63.0789
91.3782 100 58.6408
96.1807 100 60.8965
103.825 100 45.1118
105.833 100 46.8017
105.916 100 45.6459
106.791 100 46.359
105.029 100 44.9755
109.425 100 46.057
110.321 100 40.5386
111.205 100 39.9929
110.511 100 41.5713
111.736 100 40.9339
112.923 100 41.0456
113.939 100 41.5123
113.178 100 39.9454
114.113 100 40.4256
115.173 100 45.9675
119.457 100 44.9798
117.697 100 46.3523
118.573 100 45.6458
118.658 100 46.8031
120.667 100 45.1104
128.573 100 60.6636
133.114 100 58.6408
129.834 100 62.8075
131.984 100 64.4498
133.251 100 63.6775
135.794 100 70.9315
134.861 100 71.7156
134.338 100 73.6949
133.132 100 71.8211
133.251 100 73.3462
139.55 100 74.2139
138.647 100 75.6558
139.638 100 75.2843
140.629 100 74.7886
142.645 100 74.941
143.66 100 74.4975
144.563 100 73.9683
146.55 100 74.196
147.608 100 73.689
147.834 100 72.5845
76.042 100 74.3938
77.0686 100 74.9233
78.9586 100 74.7682
79.9135 100 75.2133
80.9615 100 75.6705
82.8217 100 75.5088
83.9116 100 75.9475
84.9549 100 76.3945
86.0953 100 76.6865
87.0965 100 77.0994
88.1633 100 76.9834
92.3777 100 71.5331
90.2677 100 72.438
90.9456 100 68.9074
92.6495 100 65.9942
90.6053 100 70.8825
93.419 100 63.5201
95.412 100 61.7219
96.5694 100 62.3421
98.2749 100 62.2466
104.933 100 46.0908
98.3073 100 52.0608
106.167 100 53.8676
110.732 100 44.3511
107.031 100 44.9703
108.915 100 47.0552
109.791 100 44.979
109.889 100 43.739
108.153 100 39.8635
111.465 100 42.2138
113.11 100 42.1724
116.385 100 39.8853
114.568 100 43.7736
114.7 100 44.9202
115.573 100 47.1688
117.456 100 44.9728
113.699 100 44.3323
118.491 100 53.485
126.185 100 52.0608
119.555 100 46.0909
126.084 100 62.2226
127.921 100 62.3029
128.94 100 61.7228
131.148 100 63.753
133.851 100 70.9523
131.929 100 66.025
133.25 100 68.945
134.025 100 72.4904
132.021 100 71.398
136.222 100 77.14
137.405 100 77.0612
138.4 100 76.6682
139.542 100 76.4071
140.581 100 75.9495
141.67 100 75.5011
143.534 100 75.6593
144.584 100 75.2098
145.533 100 74.7656
147.426 100 74.9239
148.451 100 74.3919
76.1854 100 75.5626
77.1997 100 76.0289
78.0272 100 75.3832
78.9726 100 75.8777
80.0918 100 76.303
82.0666 100 76.2615
83.065 100 76.724
84.1431 100 77.0716
85.2119 100 77.4392
86.2209 100 77.7625
87.6343 100 78.2144
88.7668 100 78.0309
90.5051 100 76.5405
91.6138 100 70.2794
92.5383 100 68.2216
93.2007 100 66.9211
93.655 100 64.7723
94.5821 100 64.1249
95.5886 100 63.2313
97.3574 100 61.3288
98.5614 100 61.2668
104.326 100 55.1877
105.453 100 54.7359
106.57 100 54.9421
103.749 100 51.2739
107.248 100 54.008
106.728 100 53.0281
105.672 100 52.9549
110.349 100 42.6033
111.227 100 43.3156
113.29 100 43.3028
114.151 100 42.6615
119.285 100 52.0168
117.168 100 52.5532
117.266 100 53.8707
120.467 100 51.966
117.609 100 55.0172
118.813 100 54.8319
120.973 100 55.583
125.925 100 61.1193
127.01 100 61.5932
128.837 100 63.0839
129.877 100 63.9038
130.695 100 64.8317
131.275 100 66.9632
132.09 100 67.9841
133.007 100 70.2393
133.605 100 76.9121
135.552 100 77.936
136.845 100 78.1161
138.26 100 77.7386
139.288 100 77.4597
140.361 100 77.0728
141.423 100 76.7372
142.423 100 76.2558
144.398 100 76.303
145.52 100 75.8782
146.465 100 75.3799
147.293 100 76.0257
148.31 100 75.5614
76.2606 100 76.7038
77.3318 100 77.185
78.2153 100 76.6979
79.2109 100 77.0658
81.2104 100 76.855
82.2032 100 77.4153
83.3159 100 77.8432
84.3723 100 78.2951
85.5529 100 78.6063
86.7288 100 78.7989
88.1151 100 79.1616
89.8268 100 78.4732
89.3513 100 76.8835
92.7564 100 70.2869
92.1927 100 69.2727
93.644 100 68.1382
94.6226 100 66.6326
93.7396 100 65.8592
94.6285 100 65.1708
95.694 100 64.3398
96.5921 100 63.827
99.5613 100 61.8563
104.289 100 54.1452
105.275 100 58.0614
105.192 100 55.8691
106.208 100 56.0666
108.862 100 55.6084
110.269 100 55.8051
107.91 100 53.0357
111.621 100 44.9129
112.791 100 44.9132
116.356 100 53.3449
114.717 100 54.8626
115.597 100 55.8806
118.242 100 55.9629
119.606 100 55.803
119.302 100 57.4689
120.094 100 54.793
125.093 100 61.9714
127.619 100 63.8135
128.892 100 64.2348
129.683 100 65.0334
130.609 100 66.0197
130.167 100 67.0748
130.85 100 67.9109
132.226 100 69.2527
131.913 100 70.2976
135.061 100 76.8867
134.748 100 78.6457
136.459 100 79.1242
137.753 100 78.7945
138.906 100 78.5897
140.115 100 78.2967
141.187 100 77.8308
142.291 100 77.4239
143.283 100 76.8452
145.282 100 77.0608
146.278 100 76.6982
147.161 100 77.1861
148.231 100 76.7003
76.4199 100 77.8699
77.4476 100 78.4258
78.3336 100 77.7366
80.2449 100 77.3873
81.2737 100 78.0319
82.2932 100 78.452
83.4605 100 78.9923
84.7983 100 79.2853
85.853 100 79.6598
87.1356 100 79.7483
87.7344 100 80.8636
90.4236 100 79.4101
90.7143 100 77.8941
94.3603 100 68.9357
93.2492 100 69.3393
95.8651 100 67.3563
96.1366 100 66.311
95.7882 100 65.36
96.7736 100 64.8271
97.6676 100 64.2087
97.5392 100 63.0625
103.008 100 61.6835
105.744 100 57.0413
107.175 100 56.9425
107.602 100 55.75
108.378 100 56.775
109.436 100 56.6088
110.063 100 57.5146
108.111 100 54.6931
111.323 100 47.1965
113.154 100 47.1478
116.389 100 54.5361
113.806 100 57.3452
115.057 100 56.8324
116.268 100 57.018
116.683 100 55.6871
117.434 100 56.7296
117.932 100 57.8978
121.405 100 61.7106
127.067 100 62.858
126.574 100 64.0727
127.124 100 65.0781
128.573 100 65.3736
129.506 100 66.0331
128.483 100 67.6166
131.032 100 69.6186
130.186 100 68.8957
133.91 100 77.9013
133.804 100 79.1145
136.743 100 80.9348
137.198 100 79.8706
138.504 100 79.6404
139.634 100 79.3005
141.06 100 79.0353
142.197 100 78.507
143.219 100 78.017
144.245 100 77.393
146.154 100 77.734
147.036 100 78.4228
148.072 100 77.8712
76.4419 100 79.0084
77.5806 100 79.5383
78.4314 100 78.9252
79.3164 100 78.1872
80.3178 100 78.5836
81.3953 100 79.233
82.4489 100 79.4575
83.365 100 80.0238
84.5735 100 80.4579
85.7065 100 80.7044
86.7114 100 80.868
89.2578 100 79.3611
91.1533 100 80.5066
90.3991 100 75.2222
91.4575 100 74.7248
94.7861 100 67.7808
96.7266 100 68.2864
97.1198 100 67.0893
97.1739 100 65.93
98.7064 100 64.7079
98.6783 100 63.5126
101.132 100 62.9293
103.747 100 60.1101
104.665 100 60.6074
106.395 100 58.0409
107.727 100 57.8087
108.109 100 59.0091
108.885 100 57.8431
111.482 100 57.6662
111.37 100 55.5295
113.579 100 55.3989
112.73 100 57.8422
114.988 100 57.9696
116.095 100 58.7309
116.841 100 57.9289
118.783 100 58.4224
119.536 100 59.3236
120.788 100 60.8023
123.462 100 62.8107
125.778 100 63.2002
126.114 100 65.0932
127.688 100 66.034
127.242 100 67.4584
127.732 100 68.4732
129.642 100 67.9685
132.799 100 74.8416
134.085 100 75.0219
133.371 100 80.4415
135.352 100 79.5043
137.83 100 80.8441
138.841 100 80.6482
139.922 100 80.4733
141.164 100 80.0614
142.106 100 79.5226
143.113 100 79.2198
144.179 100 78.5866
145.167 100 78.1818
146.051 100 78.9216
146.919 100 79.5335
148.035 100 79.02
75.4343 100 79.5328
76.6313 100 80.0766
78.3954 100 80.1305
79.4703 100 79.4235
80.4728 100 79.9799
80.6406 100 81.7017
82.3193 100 80.5992
83.8289 100 81.2086
84.9473 100 81.4955
86.1274 100 81.7754
87.2667 100 81.876
89.888 100 80.3679
91.6412 100 81.5908
91.3754 100 75.7767
95.2363 100 69.5651
95.6633 100 68.5608
97.4357 100 69.561
98.5922 100 67.2207
98.1635 100 66.2724
99.6719 100 64.0731
99.8464 100 62.9301
102.209 100 62.4326
104.243 100 61.6325
106.872 100 59.0875
109.019 100 59.5711
109.71 100 58.4954
109.512 100 61.8293
110.859 100 58.688
108.815 100 62.7713
109.791 100 63.6295
114.559 100 62.7885
115.429 100 62.0845
113.996 100 58.4059
114.584 100 61.4426
114.918 100 59.1068
115.902 100 59.8102
117.659 100 58.9423
120.065 100 61.7983
122.349 100 62.5214
124.631 100 62.962
125.414 100 64.1823
126.705 100 66.0721
126.145 100 67.0139
127.022 100 69.3208
128.872 100 68.7301
129.2 100 69.8719
133.375 100 75.7324
132.35 100 81.736
134.441 100 80.17
137.289 100 81.8824
138.419 100 81.766
139.592 100 81.4899
140.708 100 81.2219
142.069 100 80.662
143.813 100 81.6537
144.014 100 79.9861
145.021 100 79.4295
146.094 100 80.1197
147.858 100 80.0773
149.043 100 79.5652
75.3142 100 80.6902
76.3874 100 81.2343
77.4032 100 80.7902
78.6206 100 81.2015
79.5604 100 80.5032
79.5078 100 81.7516
81.8896 100 81.6912
82.9731 100 81.9811
84.2176 100 82.2876
85.2991 100 82.8613
86.5945 100 82.7777
87.8564 100 82.8349
88.9389 100 80.8151
88.2615 100 81.7874
88.9216 100 82.6535
92.334 100 80.3702
96.5664 100 70.3718
97.8549 100 68.3638
100.406 100 67.0761
99.3807 100 66.3699
99.7881 100 65.2861
100.71 100 64.4564
103.841 100 62.553
106.289 100 59.9437
107.609 100 59.979
109.14 100 60.6473
108.121 100 61.0272
106.586 100 63.4468
107.908 100 63.5306
109.887 100 65.3094
115.111 100 65.0952
117.179 100 63.3336
118.347 100 63.8572
115.6 100 60.9423
114.826 100 60.2678
117.145 100 59.9979
118.522 100 59.8037
120.881 100 62.8186
123.622 100 64.3039
124.462 100 65.0358
125.591 100 66.1577
124.982 100 67.3799
126.616 100 68.2261
128.003 100 70.0944
132.096 100 80.3545
135.319 100 82.6363
136.178 100 81.86
135.543 100 80.8255
136.791 100 82.8544
137.968 100 82.7732
139.135 100 82.888
140.249 100 82.3034
141.531 100 82.0142
142.774 100 81.5976
144.968 100 81.722
144.928 100 80.5078
145.884 100 81.2251
147.075 100 80.7883
148.122 100 81.2183
149.19 100 80.6959
75.4996 100 81.8368
76.5713 100 82.2435
77.6662 100 81.8438
78.8652 100 82.8259
79.6017 100 83.7144
78.7655 100 84.7361
80.1266 100 82.781
81.5164 100 82.7423
82.8721 100 83.0486
82.113 100 83.8101
84.4134 100 83.3607
85.9139 100 83.8071
87.2584 100 83.8105
88.5364 100 83.6825
89.9319 100 83.192
91.8382 100 79.2194
97.4312 100 71.6763
97.7235 100 70.5806
99.5172 100 67.966
100.665 100 68.2812
101.948 100 64.9251
[...]
POINT_DATA 1600
SCALARS mass double
LOOKUP_TABLE default
1
1
1
1
1
1
1
1
1
1
1
1
1
1
1
1
1
1
1
1
1
1
1
1
1
1
1
1
1
1
1
1
1
1
1
1
1
1
1
1
1
1
1
1
1
1
1
1
1
1
1
1
1
1
1
1
1
1
1
1
1
1
1
1
1
1
1
1
1
1
1
1
1
1
1
1
1
1
1
1
1
1
1
1
1
1
1
1
1
1
1
1
1
1
1
1
1
1
1
1
1
1
1
1
1
1
1
1
1
1
1
1
1
1
1
1
1
1
1
1
1
1
1
1
1
1
1
1
1
1
1
1
1
1
1
1
1
1
1
1
1
1
1
1
1
1
1
1
1
1
1
1
1
1
1
1
1
1
1
1
1
1
1
1
1
1
1
1
1
1
1
1
1
1
1
1
1
1
1
1
1
1
1
1
1
1
1
1
1
1
1
1
1
1
1
1
1
1
1
1
1
1
1
1
1
1
1
1
1
1
1
1
1
1
1
1
1
1
1
1
1
1
1
1
1
1
1
1
1
1
1
1
1
1
1
1
1
1
1
1
1
1
1
1
1
1
1
1
1
1
1
1
1
1
1
1
1
1
1
1
1
1
1
1
1
1
1
1
1
1
1
1
1
1
1
1
1
1
1
1
1
1
1
1
1
1
1
1
1
1
1
1
1
1
1
1
1
1
1
1
1
1
1
1
1
1
1
1
1
1
1
1
1
1
1
1
1
1
1
1
1
1
1
1
1
1
1
1
1
1
1
1
1
1
1
1
1
1
1
1
1
1
1
1
1
1
1
1
1
1
1
1
1
1
1
1
1
1
1
1
1
1
1
1
1
1
1
1
1
1
1
1
1
1
1
1
1
1
1
1
1
1
1
1
1
1
1
1
1
1
1
1
1
1
1
1
1
1
1
1
1
1
1
1
1
1
1
1
1
1
1
1
1
1
1
1
1
1
1
1
1
1
1
1
1
1
1
1
1
1
1
1
1
1
1
1
1
1
1
1
1
1
1
1
1
1
1
1
1
1
1
1
1
1
1
1
1
1
1
1
1
1
1
1
1
1
1
1
1
1
1
1
1
1
1
1
1
1
1
1
1
1
1
1
1
1
1
1
1
1
1
1
1
1
1
1
1
1
1
1
1
1
1
1
1
1
1
1
1
1
1
1
1
1
1
1
1
1
1
1
1
1
1
1
1
1
1
1
1
1
1
1
1
1
1
1
1
1
1
1
1
1
1
1
1
1
1
1
1
1
1
1
1
1
1
1
1
1
1
1
1
1
1
1
1
1
1
1
1
1
1
1
1
1
1
1
1
1
1
1
1
1
1
1
1
1
1
1
1
1
1
1
1
1
1
1
1
1
1
1
1
1
1
1
1
1
1
1
1
1
1
1
1
1
1
1
1
1
1
1
1
1
1
1
1
1
1
1
1
1
1
1
1
1
1
1
1
1
1
1
1
1
1
1
1
1
1
1
1
1
1
1
1
1
1
1
1
1
1
1
1
1
1
1
1
1
1
1
1
1
1
1
1
1
1
1
1
1
1
1
1
1
1
1
1
1
1
1
1
1
1
1
1
1
1
1
1
1
1
1
1
1
1
1
1
1
1
1
1
1
1
1
1
1
1
1
1
1
1
1
1
1
1
1
1
1
1
1
1
1
1
1
1
1
1
1
1
1
1
1
1
1
1
1
1
1
1
1
1
1
1
1
1
1
1
1
1
1
1
1
1
1
1
1
1
1
1
1
1
1
1
1
1
1
1
1
1
1
1
1
1
1
1
1
1
1
1
1
1
1
1
1
1
1
1
1
1
1
1
1
1
1
1
1
1
1
1
1
1
1
1
1
1
1
1
1
1
1
1
1
1
1
1
1
1
1
1
1
1
1
1
1
1
1
1
1
1
1
1
1
1
1
1
1
1
1
1
1
1
1
1
1
1
1
1
1
1
1
1
1
1
1
1
1
1
1
1
1
1
1
1
1
1
1
1
1
1
1
1
1
1
1
1
1
1
1
1
1
1
1
1
1
1
1
1
1
1
1
1
1
1
1
1
1
1
1
1
1
1
1
1
1
1
1
1
1
1
1
1
1
1
1
1
1
1
1
1
1
1
1
1
1
1
1
1
1
1
1
1
1
1
1
1
1
1
1
1
1
1
1
1
1
1
1
1
1
1
1
1
1
1
1
1
1
1
1
1
1
1
1
1
1
1
1
1
1
1
1
1
1
1
1
1
1
1
1
1
1
1
1
1
1
1
1
1
1
1
1
1
1
1
1
1
1
1
1
1
1
1
1
1
1
1
1
1
1
1
1
1
1
1
1
1
1
1
1
1
1
1
1
1
1
1
1
1
1
1
1
1
1
1
1
1
1
1
1
1
1
1
1
1
1
1
1
1
1
1
1
1
1
1
1
1
1
1
1
1
1
1
1
1
1
1
1
1
1
1
1
1
1
1
1
1
1
1
1
1
1
1
1
1
1
1
1
1
1
1
1
1
1
1
1
1
1
1
1
1
1
1
1
1
1
1
1
1
1
1
1
1
1
1
1
1
1
1
1
1
1
1
1
1
1
1
1
1
1
1
1
1
1
1
1
1
1
1
1
1
1
1
1
1
1
1
1
1
1
1
1
1
1
1
1
1
1
1
1
1
1
1
1
1
1
1
1
1
1
1
1
1
1
1
1
1
1
1
1
1
1
1
1
1
1
1
1
1
1
1
1
1
1
1
1
1
1
1
1
1
1
1
1
1
1
1
1
1
1
1
1
1
1
1
1
1
1
1
1
1
1
1
1
1
1
1
1
1
1
1
1
1
1
1
1
1
1
1
1
1
1
1
1
1
1
1
1
1
1
1
1
1
1
1
1
1
1
1
1
1
1
1
1
1
1
1
1
1
1
1
1
1
1
1
1
1
1
1
1
1
1
1
1
1
1
1
1
1
1
1
1
1
1
1
1
1
1
1
1
1
1
1
1
1
1
1
1
1
1
1
1
1
1
1
1
1
1
1
1
1
1
1
1
1
1
1
1
1
1
1
1
1
1
1
1
1
1
1
1
1
1
1
1
1
1
1
1
1
1
1
1
1
1
1
1
1
1
1
1
1
1
1
1
1
1
1
1
1
1
1
1
1
1
1
1
1
1
1
1
1
1
1
1
1
1
1
1
1
1
1
1
1
1
1
1
1
1
1
1
1
1
1
1
1
1
1
1
1
1
1
1
1
1
1
1
1
1
1
1
1
1
1
1
1
1
1
1
1
1
1
1
1
1
1
1
1
1
1
1
1
1
1
1
1
1
1
1
1
1
1
1
1
1
1
1
1
1
1
1
1
1
1
1
1
1
1
1
1
1
1
1
1
1
1
1
1
1
1
1
1
1
1
1
1
1
1
1
1
1
1
1
1
1
1
1
1
1
1
1
1
1
1
1
1
1
1
1
1
1
1
1
1
1
1
1
1
1
1
1
1
1
1
1
1
1
1
1
1
1
1
1
1
1
1
1
1
1
1
1
1
1
1
1
1
1
1
1
1
1
1
1
1
1
1
1
1
1
1
1
1
1
1
1
1
1
1
1
1
1
1
1
1
1
1
1
1
1
1
1
1
1
1
1
1
1
1
1
1
1
1
1
1
1
VECTORS force double
0.335303 0 3.10077
16.9077 0 11.1381
-4.07273 0 15.2378
-54.5001 0 -5.22097
33.88 0 39.9627
3.22263 0 17.3265
-3.12923 0 8.81943
-30.8047 0 28.7025
5.52689 0 -37.5538
-7.20147 0 -22.2607
-15.9848 0 0.957594
-9.55516 0 -3.52723
19.538 0 -14.1345
-51.3061 0 -94.5833
-5.33654 0 -4.93595
6.9649 0 5.36293
8.00805 0 -3.75147
5.42247 0 -35.8971
0 0 0
12.0869 0 11.2571
16.6765 0 3.00175
-37.1494 0 3.24808
29.3098 0 -3.13014
32.0519 0 -24.6799
-12.4062 0 -0.47213
2.45495 0 -4.75601
-47.3297 0 -9.6693
38.102 0 -40.9775
29.542 0 -7.29335
6.13523 0 30.1602
-3.00415 0 -1.74024
25.4983 0 -4.6604
-38.0063 0 -12.7567
27.6865 0 16.5284
0.799653 0 5.19052
13.7982 0 -2.79205
-28.3147 0 -22.5495
-30.3968 0 -2.61854
32.604 0 1.27888
-16.7566 0 2.96932
-2.28518 0 2.79055
0 0 0
52.0639 0 -26.5586
4.61738 0 12.988
-5.90435 0 3.23154
-10.2983 0 7.74419
-6.558 0 -10.8847
-10.4497 0 -3.42255
-8.58536 0 -5.55343
7.97988 0 -3.57019
7.80021 0 -12.8976
-10.7242 0 -30.676
35.5972 0 20.1027
3.33679 0 9.32991
-2.63035 0 17.0792
-27.5297 0 36.9944
49.0042 0 -1.24366
4.00402 0 14.6369
-16.9685 0 10.7417
-0.377798 0 3.34477
3.29256 0 18.134
-20.2743 0 -39.1222
-31.2142 0 -30.8298
38.4567 0 1.60233
27.2902 0 -7.51387
38.8391 0 -9.45581
-2.81702 0 -2.58253
31.7396 0 -42.4579
-20.9844 0 33.5509
3.02561 0 16.8808
33.9508 0 17.0144
-7.53505 0 -14.8068
86.3888 0 93.7935
15.6648 0 8.09511
-15.2429 0 -21.4246
5.01407 0 15.1972
6.51369 0 22.0102
10.4978 0 11.9181
0.242348 0 1.15504
-12.4881 0 71.6663
-15.7824 0 7.88595
0 0 0
-40.1278 0 136.35
6.61651 0 2.22823
-12.2976 0 14.2783
-0.20764 0 -0.0740695
3.47674 0 -9.76745
-28.4685 0 -31.1965
0.363026 0 0.113047
-8.44594 0 -10.7418
-24.2048 0 22.4983
-0.30434 0 0.0723717
39.6175 0 -39.8104
-6.59746 0 -5.74974
-3.7257 0 -11.5999
12.1835 0 14.5811
-26.952 0 29.2003
-11.6986 0 9.69638
0 0 0
16.3499 0 9.34492
103.074 0 -40.2174
80.3458 0 -43.597
-4.79331 0 21.2376
-28.9813 0 -0.00814903
12.4271 0 16.2805
-16.5402 0 -0.5258
17.2286 0 1.23209
2.48644 0 9.66778
15.2502 0 4.14376
38.0524 0 -34.6659
-45.7975 0 13.9551
31.964 0 27.4487
-36.1996 0 -43.9992
4.4632 0 -3.0647
-38.975 0 -9.20273
-26.2236 0 -6.79071
-44.2689 0 4.38876
35.4196 0 -32.0164
19.9983 0 -39.9443
-3.05123 0 18.3405
-9.59203 0 2.03512
-23.8677 0 47.7603
34.7983 0 -23.4998
41.555 0 27.6132
-23.7426 0 14.7768
3.8865 0 -19.1586
17.1679 0 -8.89444
-28.0322 0 29.6327
-27.414 0 23.2589
45.8195 0 23.807
0.232181 0 -57.1477
-3.44348 0 -0.177785
-4.97346 0 -2.832
2.1782 0 1.4198
5.08828 0 0.0531543
24.3433 0 22.9776
-46.2857 0 -39.493
3.28395 0 -14.8927
1.84032 0 -3.27241
0.603916 0 14.9218
17.1747 0 -70.2885
8.52895 0 40.8625
-14.2411 0 9.4241
5.93928 0 4.83317
0 0 0
8.39096 0 0.706977
96.8488 0 -82.1643
-59.4772 0 -46.2145
-0.227028 0 57.0948
-10.2089 0 7.24282
-13.2346 0 8.60736
13.4562 0 -13.2734
8.06237 0 2.34559
1.90265 0 15.2622
55.8996 0 14.7519
-10.1366 0 0.55088
-3.08355 0 -9.39657
-1.60729 0 12.2476
-16.4181 0 -5.3437
1.89014 0 10.9993
-1.12386 0 12.0785
-65.0555 0 16.5902
61.4723 0 -0.124834
63.7139 0 -17.8139
28.5057 0 -50.4388
-15.3273 0 6.16324
-3.6525 0 -16.2826
-14.0235 0 -65.7429
-8.51208 0 28.0665
5.68792 0 -32.3182
-43.7228 0 23.1258
23.3722 0 16.9806
20.472 0 31.4858
-7.33154 0 -18.7109
-7.72035 0 -15.7394
22.1207 0 14.6246
-40.5684 0 26.2883
-34.5716 0 -22.8426
23.6723 0 48.8401
9.18033 0 1.90424
17.7108 0 3.54666
-93.7626 0 53.0815
41.712 0 -120.151
22.6376 0 -13.0167
-43.7049 0 21.1812
-2.00867 0 -54.9132
-12.2352 0 4.39311
-0.573473 0 -33.554
47.1847 0 -66.0877
-56.3869 0 -45.9284
17.2785 0 22.4878
-16.8506 0 -20.8911
-1.92277 0 12.0613
-24.3532 0 26.079
-44.9545 0 12.8022
-7.45335 0 -20.8651
-1.78612 0 -1.45017
13.2938 0 25.2747
56.1496 0 62.0858
-60.3305 0 -31.9999
41.4111 0 -129.476
-17.3345 0 -2.05221
11.4031 0 -44.4707
1.52408 0 0.00516627
-42.6339 0 -6.69121
81.9527 0 -13.0771
-12.5179 0 12.3211
-10.7911 0 6.38972
-16.5303 0 11.4677
41.047 0 18.4404
-23.6067 0 7.47031
-32.3071 0 -10.828
-0.664247 0 12.9497
0.112207 0 -9.47294
10.2958 0 -15.549
-9.34515 0 -6.74715
-1.35046 0 -13.3566
-5.27682 0 6.56675
-58.8345 0 -28.2844
36.1771 0 5.5962
-62.4337 0 17.2358
-45.1773 0 -72.7627
13.0024 0 -7.05578
8.80322 0 -76.8697
-15.4586 0 75.2405
-27.8578 0 -3.51725
-9.74392 0 8.07079
2.0938 0 13.571
-6.08364 0 -33.2177
-39.4397 0 -15.3866
-1.9357 0 1.56465
-39.881 0 -50.4941
1.84346 0 -15.6323
9.29091 0 18.9648
-3.61622 0 -23.0606
44.2297 0 21.9138
-27.7033 0 -12.1281
-40.1898 0 -123.197
93.5825 0 52.9212
-17.7356 0 4.40635
12.1213 0 -3.19434
-19.7609 0 -15.1067
-18.9616 0 51.1062
12.6606 0 41.5552
-11.2236 0 -9.21103
9.33118 0 -24.6349
10.3264 0 -72.099
-71.5772 0 88.3046
27.6002 0 -27.4459
17.651 0 72.3867
66.8628 0 -39.8228
12 0 -1.61057
26.4381 0 -21.4804
2.71544 0 -5.06734
52.9983 0 -44.3242
-0.108627 0 33.8257
36.2981 0 77.3928
-32.4198 0 -14.9811
-1.99684 0 99.9758
21.3327 0 -18.6321
-12.6265 0 17.0367
29.7429 0 -1.26073
1.36382 0 14.2933
-42.5846 0 -70.6682
2.22465 0 4.933
-37.8855 0 4.6593
16.4466 0 -10.5349
19.8338 0 -33.977
2.52475 0 19.0622
1.04526 0 -0.632871
-1.18711 0 -0.493749
2.63095 0 12.3262
5.73815 0 -14.731
-2.42142 0 19.1739
-16.5833 0 -33.8009
15.8028 0 3.21755
-18.6669 0 13.0661
-85.8954 0 -94.7648
-1.80171 0 27.0374
-95.1366 0 36.9384
-27.8099 0 -7.72009
110.294 0 -35.1349
12.1808 0 -15.461
-18.9272 0 94.4468
0.59376 0 11.0895
11.1316 0 -6.10254
-1.66546 0 10.2022
18.8881 0 65.6829
-38.9697 0 26.269
-16.3232 0 -30.032
45.8276 0 31.0271
-14.1799 0 -23.9549
59.1228 0 78.2555
-3.66948 0 -81.864
-5.99729 0 -65.6492
10.6445 0 0.356944
-10.848 0 36.6755
17.3793 0 53.9428
21.4286 0 -15.4269
-12.7022 0 -1.33148
13.729 0 -15.736
-120.008 0 -34.9769
50.8482 0 -23.1534
1.44789 0 6.2754
15.2494 0 19.6992
-29.3441 0 -20.714
11.9831 0 82.2503
20.2603 0 85.9472
24.8072 0 -47.1588
-85.9848 0 18.0889
20.6735 0 -9.8844
-18.6958 0 37.5241
0.0773121 0 -8.55576
8.55925 0 17.4132
-16.2173 0 -45.5235
-2.12809 0 10.4172
8.44426 0 -16.2395
-7.05106 0 -1.77968
-44.4861 0 -21.2226
8.42197 0 -8.00532
-9.67165 0 -0.238874
-5.02777 0 0.243304
-42.0767 0 -16.7651
50.1316 0 25.7546
13.9922 0 -12.4195
43.3489 0 66.0505
-25.4827 0 -41.0971
-32.8634 0 -37.3446
-2.69683 0 9.47182
-3.11671 0 1.76062
11.6781 0 -3.33922
5.17248 0 -2.03751
18.6113 0 -7.41685
-18.7366 0 -3.49596
15.5004 0 10.4641
88.6108 0 97.2509
-9.41872 0 1.1696
-17.7684 0 2.40127
5.76725 0 5.20935
-1.23344 0 25.2639
-106.306 0 10.9318
159.199 0 7.31809
93.4291 0 -123.248
10.7956 0 -3.99134
-27.3531 0 15.1134
-3.74018 0 -29.8561
68.6465 0 -89.5079
-23.5933 0 -14.6733
31.5556 0 38.0365
-62.6153 0 -2.66744
63.184 0 25.408
12.7438 0 -52.4564
-35.7218 0 75.8801
-38.0167 0 84.5511
50.5969 0 -26.8763
-25.0003 0 20.0419
5.60129 0 3.15858
-40.8489 0 -16.5871
101.67 0 -36.8794
-10.9034 0 -25.0008
14.2876 0 11.2372
-52.2557 0 1.43819
92.4864 0 43.2284
-6.99288 0 -29.8885
37.7778 0 -34.8141
7.53126 0 12.908
9.44957 0 -0.158858
-28.1491 0 24.1135
16.9907 0 6.90574
-26.0065 0 9.81263
-130.455 0 9.11614
40.0829 0 -18.6671
0.134348 0 -17.7329
-9.51963 0 41.1084
14.4113 0 21.5552
-16.8287 0 -24.2276
-11.2304 0 -42.1483
24.2405 0 55.6831
25.2782 0 -29.0611
-11.719 0 3.92145
-0.612367 0 16.5964
-13.082 0 11.3509
-25.1885 0 -174.043
49.1575 0 -52.4776
18.217 0 -11.8395
12.8767 0 81.9098
-12.2663 0 -4.57686
-7.29833 0 -17.3587
5.56448 0 10.5219
14 0 -18.501
1.78689 0 -8.36774
27.7678 0 12.6983
-11.3863 0 26.6093
-20.1041 0 -21.8231
15.1367 0 2.67596
-9.06196 0 15.5936
-0.0598244 0 20.9081
24.2376 0 -17.1545
-8.87962 0 -4.59398
0.213762 0 17.7415
-15.8149 0 47.8755
-165.134 0 16.1771
42.5559 0 94.6403
5.97792 0 9.62661
-12.7685 0 14.1196
-7.66358 0 -16.0786
-58.2713 0 116.759
-8.84047 0 -14.8853
11.4276 0 -12.0115
21.5628 0 -9.78311
25.2707 0 -0.542418
-46.6172 0 -5.51006
14.7709 0 9.80985
10.7671 0 17.6491
64.2521 0 12.2529
-36.5001 0 -33.7884
6.21104 0 -30.048
-89.1805 0 48.7906
49.8252 0 13.9438
-17.0136 0 6.82564
20.0479 0 1.87676
1.87353 0 -93.4991
49.8584 0 -0.922312
-47.5645 0 -19.0718
-51.1357 0 51.012
42.702 0 33.1136
-6.20874 0 -7.93582
14.954 0 -27.5084
-21.1573 0 1.52454
80.1461 0 -62.0313
4.07504 0 23.7
-41.83 0 -5.73288
-56.2486 0 21.2615
132.49 0 -2.80951
31.1782 0 1.48339
-3.95912 0 -10.5303
15.4012 0 -5.64398
2.55951 0 1.34359
-4.75709 0 11.6136
-3.19538 0 5.70788
5.40024 0 -14.5169
5.80017 0 13.0905
-61.4624 0 103.618
-16.8905 0 58.6187
-4.4263 0 4.96361
14.4798 0 20.986
-1.22448 0 -2.08041
7.13209 0 11.9411
6.17788 0 10.2654
9.80802 0 -11.6825
-12.7055 0 -5.4256
0.446257 0 18.0711
-3.99357 0 -24.5299
53.3894 0 44.0144
-45.9022 0 -47.8755
5.54118 0 -5.50762
-18.5694 0 -3.21892
16.686 0 -47.4408
-9.98558 0 1.57144
6.63807 0 3.0735
-46.7136 0 -73.2799
13.9087 0 -13.3703
-94.0449 0 112.234
-9.10515 0 -9.7901
-24.0039 0 28.4906
73.1032 0 -34.3203
-17.5881 0 17.212
7.72324 0 -5.05052
-8.43434 0 18.8476
-3.30134 0 22.4987
-100.652 0 -64.5074
37.697 0 19.7446
3.02568 0 -28.8103
-67.3129 0 3.2727
-45.0506 0 22.6409
51.3773 0 52.1741
47.7763 0 -30.904
-38.7402 0 -5.47719
-7.15987 0 -90.1871
-18.752 0 5.03636
-9.95236 0 15.5626
25.5041 0 37.1121
-3.96862 0 22.587
38.7114 0 -51.3115
-20.2114 0 28.6606
14.3679 0 -0.425061
13.9283 0 -32.1827
-0.44355 0 8.6976
14.7913 0 12.6973
-32.1601 0 -3.4941
-79.1846 0 67.2659
10.952 0 2.02282
-0.289224 0 -0.0551677
-7.97389 0 -12.0412
-10.7876 0 -23.0437
-17.2516 0 6.82129
16.9931 0 -0.282428
12.4418 0 38.6552
5.8318 0 -9.81775
3.58438 0 -14.4506
-16.5865 0 -0.196273
-0.219582 0 -19.8089
61.5642 0 102.624
-0.23592 0 -27.972
29.6755 0 17.2296
-23.8114 0 -6.05899
-14.5184 0 -11.37
12.2373 0 10.0325
-24.8834 0 30.9254
-31.3288 0 -8.61404
13.8778 0 7.44757
30.268 0 7.28645
-5.56831 0 -0.182883
-11.0847 0 -10.3327
8.51124 0 -22.9179
-13.9748 0 4.45194
-1.48994 0 -1.24144
-33.6045 0 -36.8536
5.27138 0 81.5424
20.3164 0 1.98928
-23.6684 0 -4.76149
19.2529 0 21.8063
-1.80079 0 -59.7549
13.3816 0 52.0893
86.4806 0 -8.81879
-53.3831 0 44.1821
8.89353 0 -38.2143
-8.86307 0 -19.5598
11.2457 0 -3.04911
95.4081 0 72.9236
0.62873 0 12.427
3.10135 0 32.0223
-0.829211 0 -5.31524
-0.539682 0 -16.9218
-3.68869 0 -10.1337
11.9027 0 9.11468
-26.2184 0 -30.8599
5.37861 0 29.5402
-14.1922 0 25.8138
10.1409 0 13.7936
-2.4044 0 16.8251
-1.57309 0 -4.07967
16.9842 0 -0.40037
16.9598 0 8.3224
-27.3185 0 34.8655
-2.43162 0 4.17366
1.30807 0 9.06562
1.23743 0 5.05247
1.7981 0 0.896995
-17.5294 0 40.6759
-7.93709 0 -20.1326
19.4364 0 8.01435
-44.3674 0 -89.7969
-17.0141 0 -18.4261
7.05919 0 19.5826
-59.6575 0 37.6299
69.4944 0 -0.673919
-2.5607 0 19.1299
-1.3541 0 2.70585
-55.8967 0 47.6535
41.516 0 -30.7214
4.34442 0 -6.28669
-10.6021 0 -7.08521
-36.152 0 10.3141
5.35906 0 0.550148
0.70627 0 -38.8817
6.54593 0 -83.6037
8.01968 0 8.36512
-0.3451 0 -2.64031
11.7675 0 -35.4147
16.0488 0 16.1963
-13.8569 0 -19.1683
2.84938 0 34.0512
1.72598 0 -77.7679
62.1918 0 -12.7718
-4.3958 0 -38.6953
-1.00432 0 12.1573
1.18438 0 -13.0953
-3.84339 0 -4.77223
-12.6205 0 2.65646
11.8883 0 -4.82939
-2.07352 0 -0.334219
3.27142 0 15.1875
-2.91383 0 10.873
1.79648 0 30.0871
26.4129 0 22.7386
35.2016 0 -25.3218
-67.0222 0 2.29379
22.7381 0 -5.141
3.86015 0 -7.53989
16.6208 0 -24.4132
-5.67228 0 7.20813
-4.59042 0 8.03887
-17.7115 0 -19.7255
-8.50286 0 1.16863
11.3282 0 25.7268
3.03997 0 13.8637
-21.7794 0 10.2585
-2.33368 0 -4.08685
-2.55591 0 15.1644
-35.5734 0 -24.3319
11.5767 0 1.59808
2.93863 0 9.49116
-7.80689 0 18.7624
-17.4235 0 2.50666
19.4213 0 -0.26245
-21.2227 0 -21.2111
1.57926 0 -2.81151
-3.51175 0 2.67647
-8.36792 0 -90.2257
23.9495 0 -47.5803
-9.66374 0 4.19056
58.3594 0 88.5965
22.5522 0 11.2953
21.8488 0 -10.4708
-62.4859 0 -7.69068
-18.6787 0 -16.628
-17.8731 0 16.7141
-1.6216 0 3.57629
-12.1526 0 -47.4843
-41.916 0 -3.19108
-60.2354 0 -25.8544
4.62842 0 7.71643
-6.57153 0 10.4955
4.99226 0 -11.3211
-19.9292 0 42.4679
20.6074 0 93.1329
-11.4714 0 -34.8418
58.0125 0 -8.72922
-5.68206 0 11.3304
-9.12236 0 -6.88361
-25.8568 0 -15.1999
-13.0315 0 -12.8344
-21.8723 0 112.596
11.4375 0 1.77724
-6.02929 0 31.7687
5.65161 0 12.6797
2.55862 0 -19.0357
-6.95446 0 -8.32694
38.9974 0 14.4197
-23.8303 0 -9.46915
-19.464 0 -48.8214
-13.8482 0 4.55363
51.5167 0 8.0867
-13.8315 0 -5.1287
-31.5433 0 -15.2217
-7.74604 0 41.3819
56.7815 0 -53.7923
49.8397 0 11.0443
-12.609 0 -60.0044
0.715873 0 -22.7337
-23.4279 0 -45.5916
10.0135 0 7.91932
80.7596 0 -13.8105
-18.6487 0 -2.44989
9.84919 0 0.916162
-6.22612 0 -13.825
4.8544 0 41.0234
-10.3452 0 5.62938
23.0689 0 -20.9675
-48.7476 0 16.8975
8.02977 0 -56.6614
-15.3225 0 6.38881
-27.0965 0 -4.93785
2.47985 0 -21.4421
19.1642 0 -7.42105
-78.4252 0 26.8997
15.4415 0 -24.9215
12.3681 0 -17.9565
-14.3289 0 2.76504
10.3797 0 69.4464
-18.3989 0 -2.74885
35.5539 0 -8.84885
4.60452 0 16.9599
-5.30993 0 8.60581
-19.7131 0 59.3661
33.4698 0 -2.61615
18.4001 0 -19.6134
-11.9838 0 36.0454
7.88586 0 -4.44898
45.2733 0 -11.2728
-17.4401 0 27.0505
63.036 0 -0.155944
-27.9673 0 -12.9403
43.9002 0 -5.78654
-15.4678 0 -3.16714
-3.75509 0 -20.1946
48.4502 0 -28.645
-56.1777 0 18.3433
-0.973909 0 11.0193
-7.9879 0 -8.0918
-54.5521 0 -79.3321
24.5876 0 79.2638
-29.619 0 -5.6336
-6.13046 0 -4.58995
34.5669 0 -21.0109
-24.4785 0 -43.6612
-33.7519 0 27.1049
-23.7159 0 5.13072
8.83994 0 8.00872
-133.554 0 -11.8315
114.101 0 -13.035
-57.6964 0 -10.2649
13.4882 0 -14.2425
16.3771 0 3.244
-5.42997 0 42.6011
-74.9207 0 10.7444
0.915219 0 -4.44904
-11.1045 0 3.1773
-7.19419 0 72.491
8.17545 0 6.33707
-2.92724 0 1.59685
-63.2871 0 -27.0772
-3.88057 0 53.7716
-10.8487 0 -5.60158
5.51591 0 -9.70454
-14.6973 0 -4.76118
6.20912 0 -1.22238
5.05136 0 -9.17686
-38.4862 0 -71.135
13.8251 0 2.02084
63.8369 0 44.7624
-10.4337 0 -7.01843
40.1097 0 41.9777
1.23189 0 9.82783
17.1976 0 -3.86436
-18.7798 0 -2.04415
90.7302 0 10.7531
-8.23211 0 14.4701
-5.58374 0 2.06073
-26.8531 0 53.2124
-6.10685 0 10.4858
3.87633 0 -11.245
-14.9675 0 0.712732
16.6065 0 -26.6277
-0.171312 0 -4.90791
4.72273 0 19.9709
-13.3357 0 17.2878
-5.92553 0 10.4408
10.1578 0 -21.5513
15.2856 0 15.9682
1.87776 0 6.36542
-18.1321 0 -57.8389
7.09775 0 -33.4675
-10.4358 0 -15.4012
-10.4131 0 -8.42879
-2.09383 0 16.8341
-29.468 0 -1.03762
-2.10639 0 35.4903
0.0851441 0 -7.67383
13.5094 0 -2.98757
23.4764 0 -10.445
5.18495 0 -9.98791
34.4317 0 -43.9367
28.1193 0 15.9871
11.9668 0 -9.97964
8.01146 0 0.201199
-23.8589 0 -3.59373
4.75393 0 13.3601
-1.51236 0 1.78012
40.5193 0 6.88049
-8.04042 0 -17.3545
30.6799 0 -3.6558
-4.91418 0 -30.297
-7.51823 0 20.6147
-56.907 0 -7.43596
21.796 0 12.1064
-3.36597 0 0.244361
-20.6203 0 11.3743
26.2987 0 -9.88809
6.08891 0 -19.8344
8.19702 0 11.0553
10.4279 0 38.8525
-12.7716 0 19.684
-6.09845 0 -10.7777
14.8043 0 9.57316
-20.7049 0 49.1589
28.3976 0 -25.1411
-35.6455 0 -13.3914
49.5262 0 88.3602
8.99132 0 16.2055
22.0116 0 0.773546
9.23789 0 -42.4967
17.5363 0 15.0077
-3.76193 0 6.85438
13.6641 0 -16.3418
24.0683 0 -1.07033
11.7217 0 -14.4348
-78.4558 0 21.0976
-8.07457 0 -28.9524
-7.25927 0 -6.91914
0.561691 0 -3.87571
-4.9761 0 -8.90403
-24.6094 0 -19.1273
-19.6261 0 18.1579
-13.3155 0 5.58756
123.722 0 98.4046
-135.466 0 -106.651
22.4922 0 -4.86289
-21.1675 0 -28.7114
20.638 0 3.92968
3.82603 0 -3.13838
-19.2187 0 -36.7466
27.0597 0 49.0924
-8.08443 0 12.0986
23.1619 0 30.1887
-5.17463 0 -5.46149
-3.91117 0 -0.45272
-3.88008 0 -8.27101
6.61373 0 -3.32319
-0.226015 0 -3.11334
-9.26959 0 -17.8435
-12.7891 0 -6.88373
-51.2386 0 0.472413
16.1897 0 44.7466
-9.04774 0 8.64787
-4.10133 0 -17.5001
12.7919 0 13.7233
14.9787 0 -39.5779
-3.95995 0 13.1116
72.8171 0 -36.1216
-15.9026 0 -3.52121
-47.5429 0 14.6379
0.946719 0 -13.191
2.54597 0 7.55289
36.0836 0 5.43881
14.1718 0 -6.10576
-4.51611 0 5.16236
8.32214 0 19.6192
3.38552 0 -16.2438
51.4509 0 -31.0983
12.1576 0 -52.732
21.7899 0 1.242
1.12452 0 3.62987
0.278056 0 0.282073
-18.1057 0 -48.5433
-65.4907 0 27.3805
17.7678 0 -43.4778
-16.1381 0 10.3779
-19.9147 0 2.82885
14.1639 0 8.33274
-4.62617 0 42.0018
-13.7845 0 -1.72354
-34.3515 0 -31.8762
8.01309 0 -4.09849
-10.5538 0 20.0565
-6.36245 0 27.853
-5.18731 0 -2.3901
-3.99701 0 17.1981
-35.7673 0 37.5066
69.189 0 -33.2883
-1.72121 0 11.6538
19.747 0 -12.2669
-8.27551 0 26.7607
19.3009 0 -16.1231
10.8624 0 24.6207
-1.17406 0 -2.49
-10.1314 0 41.0223
39.3401 0 -2.56172
-1.78036 0 9.86707
-59.2749 0 24.6879
15.4953 0 2.51407
24.2899 0 54.2453
21.7574 0 29.9189
0.403448 0 4.86217
-1.76191 0 8.3363
-14.6094 0 3.14104
-28.2939 0 -4.52216
9.3086 0 9.32794
-12.0423 0 2.26626
-46.0271 0 -25.2574
46.2648 0 28.9157
59.9736 0 11.7089
22.5569 0 20.571
-100.002 0 -59.4941
4.91824 0 -2.51835
21.2906 0 -8.70012
-7.67648 0 -14.4207
-6.23569 0 -5.21136
-58.2692 0 -0.99614
-13.9908 0 8.43292
3.74169 0 12.0944
5.98335 0 14.0549
20.4126 0 8.53752
-14.279 0 -37.4308
2.2497 0 -13.1403
-47.0792 0 -5.58237
64.3755 0 5.83035