# vtk DataFile Version 3.0
SiWiRVisFile
ASCII
DATASET UNSTRUCTURED_GRID
POINTS 1600 DOUBLE
77.8583 100 74.6659
78.8033 100 75.2394
79.9409 100 75.6786
81.5048 100 75.0569
82.6565 100 75.1653
83.7529 100 75.2326
85.2268 100 75.7409
86.3977 100 75.8507
87.6351 100 76.0001
88.945 100 75.5275
90.0828 100 76.4206
91.2823 100 76.5794
90.8549 100 75.0992
91.5176 100 74.1197
91.7685 100 72.7984
94.1513 100 70.9375
95.1425 100 70.4608
95.9742 100 71.0268
96.2193 100 68.8833
98.8941 100 70.2563
103.728 100 61.0202
103.005 100 63.2957
103.965 100 62.2327
105.307 100 62.4529
104.718 100 61.4653
107.146 100 60.9143
108.963 100 60.3669
109.436 100 59.1378
110.469 100 59.6369
111.606 100 59.299
112.886 100 59.299
114.023 100 59.6369
115.056 100 59.1378
115.529 100 60.3669
117.347 100 60.9143
119.774 100 61.4653
119.185 100 62.4529
120.527 100 62.2327
121.488 100 63.2957
120.764 100 61.0202
125.598 100 70.2563
128.273 100 68.8833
128.518 100 71.0269
129.35 100 70.4608
130.341 100 70.9375
132.724 100 72.7984
132.975 100 74.1197
133.637 100 75.0992
133.21 100 76.5794
134.41 100 76.4206
135.547 100 75.5275
136.857 100 76.0001
138.095 100 75.8507
139.266 100 75.7409
140.739 100 75.2326
141.836 100 75.1653
142.988 100 75.0569
144.552 100 75.6786
145.689 100 75.2394
146.634 100 74.6659
77.8946 100 75.8796
79.0444 100 76.3143
80.9527 100 75.9763
82.1314 100 76.1712
83.2778 100 76.3164
84.4435 100 76.451
85.7648 100 76.6955
86.9436 100 76.8233
88.0725 100 77.0593
89.3206 100 77.2915
90.4634 100 77.422
91.5432 100 77.7502
92.3561 100 75.6664
92.6514 100 74.5979
93.688 100 74.2656
92.988 100 73.1276
95.1711 100 71.634
97.9078 100 71.1682
99.1306 100 71.3984
100.887 100 69.8793
102.457 100 62.2809
100.569 100 66.9597
103.974 100 66.8153
109.175 100 63.1155
105.969 100 61.4697
106.95 100 61.9301
108.357 100 62.3638
109.585 100 61.3121
110.451 100 60.7324
111.47 100 60.3496
113.023 100 60.3496
114.041 100 60.7324
114.908 100 61.3121
116.135 100 62.3638
117.542 100 61.9301
118.523 100 61.4697
115.317 100 63.1155
120.518 100 66.8153
123.924 100 66.9597
122.035 100 62.2809
123.605 100 69.8793
125.362 100 71.3984
126.585 100 71.1682
129.321 100 71.634
131.504 100 73.1276
130.804 100 74.2656
131.841 100 74.5979
132.136 100 75.6664
132.949 100 77.7502
134.029 100 77.4219
135.172 100 77.2915
136.42 100 77.0593
137.549 100 76.8233
138.728 100 76.6955
140.049 100 76.451
141.215 100 76.3164
142.361 100 76.1712
143.54 100 75.9763
145.448 100 76.3143
146.598 100 75.8796
78.1819 100 77.0365
79.2466 100 77.455
80.1267 100 76.8165
81.3967 100 77.0586
82.5224 100 77.2095
83.6773 100 77.4204
84.9344 100 77.5481
86.1152 100 77.7085
87.3232 100 77.9666
88.5219 100 78.1683
89.6032 100 78.6394
90.7428 100 79.1907
91.8928 100 78.9424
92.4229 100 77.0283
94.5759 100 74.9973
94.9128 100 74.0036
95.0905 100 72.9285
96.5059 100 72.0988
97.6641 100 72.1925
100.116 100 70.8353
102.162 100 69.8623
103.067 100 67.5292
105.068 100 68.3461
105.799 100 67.374
106.822 100 65.3983
107.993 100 68.2257
108.493 100 67.1515
107.357 100 67.0552
110.34 100 62.3595
111.648 100 61.5021
112.844 100 61.5021
114.153 100 62.3595
117.136 100 67.0552
116 100 67.1514
116.5 100 68.2258
117.67 100 65.3982
118.693 100 67.374
119.424 100 68.3461
121.425 100 67.5292
122.33 100 69.8623
124.376 100 70.8353
126.828 100 72.1925
127.986 100 72.0988
129.402 100 72.9285
129.58 100 74.0036
129.917 100 74.9973
132.07 100 77.0283
132.6 100 78.9424
133.75 100 79.1907
134.889 100 78.6394
135.97 100 78.1683
137.169 100 77.9666
138.377 100 77.7085
139.558 100 77.5481
140.815 100 77.4204
141.97 100 77.2095
143.096 100 77.0586
144.366 100 76.8165
145.246 100 77.455
146.31 100 77.0365
78.3899 100 78.1495
79.4123 100 78.669
80.188 100 77.9466
81.3422 100 78.2152
82.9124 100 78.245
84.0938 100 78.5029
85.3342 100 78.5557
86.5176 100 78.7375
87.6839 100 79.2679
88.74 100 79.3226
89.7697 100 79.7954
90.901 100 80.3419
92.0865 100 80.0737
93.4964 100 76.7135
93.5697 100 75.5097
95.4765 100 75.6751
95.9633 100 74.5307
96.6155 100 73.5278
97.7866 100 73.2086
98.8167 100 72.581
100.049 100 72.186
101.689 100 70.9135
103.585 100 69.03
104.895 100 69.4773
106.077 100 69.0037
106.833 100 68.1175
108.867 100 68.7954
110.01 100 69.0892
110.04 100 66.4747
111.567 100 62.5926
112.926 100 62.5926
114.452 100 66.4747
114.483 100 69.0893
115.625 100 68.7954
117.66 100 68.1175
118.416 100 69.0038
119.598 100 69.4773
120.907 100 69.03
122.803 100 70.9135
124.443 100 72.186
125.676 100 72.581
126.706 100 73.2086
127.877 100 73.5278
128.529 100 74.5306
129.016 100 75.675
130.923 100 75.5097
130.996 100 76.7135
132.406 100 80.0737
133.591 100 80.3419
134.723 100 79.7954
135.752 100 79.3226
136.809 100 79.2679
137.975 100 78.7375
139.158 100 78.5557
140.399 100 78.5029
141.58 100 78.245
143.15 100 78.2152
144.304 100 77.9466
145.08 100 78.669
146.102 100 78.1495
78.3963 100 79.2496
79.435 100 79.7382
80.4291 100 79.216
82.1433 100 78.9865
83.2176 100 79.3414
84.572 100 79.5465
85.6725 100 79.6416
86.7647 100 80.1011
87.8007 100 80.4845
88.8659 100 80.529
89.8637 100 80.942
91.661 100 81.1101
92.9337 100 79.3225
94.362 100 77.8873
94.4951 100 76.1592
96.2673 100 76.7131
96.5286 100 75.6239
96.9862 100 74.6748
98.1684 100 74.2073
99.146 100 73.801
101.228 100 71.9629
103.111 100 71.6013
105.688 100 70.3061
106.704 100 69.9972
107.324 100 69.1127
108.289 100 69.7635
109.31 100 69.8967
110.558 100 70.3294
109.399 100 67.9542
111.387 100 65.3905
113.105 100 65.3905
115.093 100 67.9542
113.935 100 70.3295
115.182 100 69.8967
116.204 100 69.7635
117.168 100 69.1127
117.788 100 69.9973
118.804 100 70.3061
121.382 100 71.6013
123.264 100 71.9629
125.346 100 73.801
126.324 100 74.2073
127.506 100 74.6748
127.964 100 75.6239
128.225 100 76.7131
129.997 100 76.1592
130.13 100 77.8873
131.559 100 79.3225
132.831 100 81.1101
134.629 100 80.942
135.627 100 80.529
136.692 100 80.4845
137.728 100 80.1011
138.82 100 79.6416
139.92 100 79.5465
141.275 100 79.3414
142.349 100 78.9865
144.063 100 79.216
145.057 100 79.7382
146.096 100 79.2496
78.5277 100 80.3806
79.4121 100 80.976
80.3921 100 80.4489
81.3405 100 79.7908
82.4628 100 80.2211
83.7225 100 80.2782
84.8004 100 80.511
85.8628 100 80.8651
86.9012 100 81.4075
87.9266 100 81.7628
89.0864 100 81.6993
90.8042 100 81.876
92.8824 100 81.22
93.946 100 80.0146
94.637 100 79.2121
95.2107 100 76.8797
97.3355 100 77.462
97.5551 100 76.2121
98.4483 100 75.4186
99.5668 100 75.186
100.174 100 73.3178
102.222 100 72.4774
103.944 100 72.4238
105.146 100 72.26
106.248 100 71.2691
107.469 100 70.739
108.518 100 71.0647
109.557 100 71.1667
111.681 100 70.589
111.265 100 69.5125
113.228 100 69.5125
112.812 100 70.589
114.935 100 71.1667
115.975 100 71.0647
117.023 100 70.739
118.244 100 71.2692
119.347 100 72.26
120.549 100 72.4238
122.27 100 72.4773
124.318 100 73.3178
124.926 100 75.186
126.044 100 75.4186
126.937 100 76.2121
127.157 100 77.462
129.282 100 76.8797
129.855 100 79.2121
130.546 100 80.0146
131.61 100 81.22
133.688 100 81.876
135.406 100 81.6993
136.566 100 81.7628
137.591 100 81.4075
138.63 100 80.8651
139.692 100 80.511
140.77 100 80.2782
142.03 100 80.2211
143.152 100 79.7908
144.1 100 80.4489
145.08 100 80.976
145.965 100 80.3806
78.3277 100 81.5079
79.4418 100 82.2161
80.3397 100 81.5654
81.3233 100 81.0166
82.4014 100 81.4724
83.6814 100 81.548
85.0456 100 81.6426
86.1158 100 82.2498
87.1809 100 82.5303
88.4336 100 82.7266
89.5795 100 82.7466
92.0847 100 82.1678
93.0723 100 82.7223
93.9311 100 81.1991
95.2441 100 80.0709
96.4595 100 77.9692
97.9666 100 78.4715
98.2893 100 77.1073
99.1883 100 76.2296
100.954 100 74.3449
101.63 100 73.3873
102.649 100 73.4745
104.767 100 73.2723
106.282 100 72.3608
107.39 100 71.7819
108.832 100 72.0707
110.073 100 72.2136
110.922 100 71.4449
110.354 100 73.8205
111.078 100 72.6895
113.414 100 72.6897
114.138 100 73.8206
113.571 100 71.4449
114.42 100 72.2136
115.66 100 72.0707
117.103 100 71.7818
118.21 100 72.3608
119.725 100 73.2723
121.843 100 73.4745
122.862 100 73.3873
123.538 100 74.3449
125.304 100 76.2296
126.203 100 77.1073
126.526 100 78.4715
128.033 100 77.9692
129.248 100 80.0709
130.561 100 81.1991
131.42 100 82.7223
132.408 100 82.1678
134.913 100 82.7466
136.059 100 82.7266
137.311 100 82.5303
138.377 100 82.2498
139.447 100 81.6426
140.811 100 81.548
142.091 100 81.4724
143.169 100 81.0166
144.153 100 81.5654
145.051 100 82.2161
146.165 100 81.5079
78.4527 100 82.7104
79.4096 100 83.4711
80.381 100 82.9729
81.3271 100 83.4663
81.1975 100 82.1745
82.7074 100 82.7735
84.2385 100 82.63
85.15 100 83.1837
86.3208 100 83.539
87.4943 100 83.6806
88.7005 100 83.7519
89.8033 100 83.9109
90.68 100 83.1202
91.7487 100 83.5875
93.1834 100 83.8584
94.1231 100 82.6537
96.481 100 79.2087
99.1089 100 78.1836
99.748 100 77.1806
100.425 100 75.9567
101.596 100 75.4519
102.035 100 74.4201
103.589 100 73.9904
105.858 100 73.5371
106.953 100 73.1107
107.949 100 72.8766
107.379 100 74.3236
109.232 100 74.5437
110.581 100 74.8792
111.549 100 74.2518
112.944 100 74.2512
113.912 100 74.8792
115.26 100 74.5436
117.114 100 74.3236
116.543 100 72.8766
117.54 100 73.1107
118.635 100 73.537
120.903 100 73.9904
122.458 100 74.4201
122.897 100 75.4518
124.067 100 75.9567
124.744 100 77.1807
125.383 100 78.1836
128.011 100 79.2087
130.369 100 82.6537
131.309 100 83.8584
132.744 100 83.5875
133.812 100 83.1202
134.689 100 83.9109
135.792 100 83.7519
136.998 100 83.6806
138.172 100 83.539
139.342 100 83.1837
140.254 100 82.63
141.785 100 82.7735
143.295 100 82.1745
143.165 100 83.4663
144.111 100 82.9729
145.083 100 83.4711
146.04 100 82.7104
78.3867 100 83.8523
79.3274 100 84.5195
80.4053 100 84.1519
81.5647 100 84.6643
82.3925 100 83.9151
83.6012 100 83.7838
84.62 100 84.1793
85.5097 100 84.9243
86.7042 100 84.7717
87.7558 100 84.7814
88.8474 100 85.076
90.0331 100 85.0108
91.0733 100 84.8824
92.1369 100 84.7274
94.2537 100 83.9055
95.2923 100 81.6027
96.7559 100 80.3566
97.6332 100 79.5474
100.114 100 78.5767
100.837 100 77.4871
102.517 100 76.1583
103.02 100 75.0367
[...]
POINT_DATA 1600
SCALARS mass double
LOOKUP_TABLE default
1
1
1
1
1
1
1
1
1
1
1
1
1
1
1
1
1
1
1
1
1
1
1
1
1
1
1
1
1
1
1
1
1
1
1
1
1
1
1
1
1
1
1
1
1
1
1
1
1
1
1
1
1
1
1
1
1
1
1
1
1
1
1
1
1
1
1
1
1
1
1
1
1
1
1
1
1
1
1
1
1
1
1
1
1
1
1
1
1
1
1
1
1
1
1
1
1
1
1
1
1
1
1
1
1
1
1
1
1
1
1
1
1
1
1
1
1
1
1
1
1
1
1
1
1
1
1
1
1
1
1
1
1
1
1
1
1
1
1
1
1
1
1
1
1
1
1
1
1
1
1
1
1
1
1
1
1
1
1
1
1
1
1
1
1
1
1
1
1
1
1
1
1
1
1
1
1
1
1
1
1
1
1
1
1
1
1
1
1
1
1
1
1
1
1
1
1
1
1
1
1
1
1
1
1
1
1
1
1
1
1
1
1
1
1
1
1
1
1
1
1
1
1
1
1
1
1
1
1
1
1
1
1
1
1
1
1
1
1
1
1
1
1
1
1
1
1
1
1
1
1
1
1
1
1
1
1
1
1
1
1
1
1
1
1
1
1
1
1
1
1
1
1
1
1
1
1
1
1
1
1
1
1
1
1
1
1
1
1
1
1
1
1
1
1
1
1
1
1
1
1
1
1
1
1
1
1
1
1
1
1
1
1
1
1
1
1
1
1
1
1
1
1
1
1
1
1
1
1
1
1
1
1
1
1
1
1
1
1
1
1
1
1
1
1
1
1
1
1
1
1
1
1
1
1
1
1
1
1
1
1
1
1
1
1
1
1
1
1
1
1
1
1
1
1
1
1
1
1
1
1
1
1
1
1
1
1
1
1
1
1
1
1
1
1
1
1
1
1
1
1
1
1
1
1
1
1
1
1
1
1
1
1
1
1
1
1
1
1
1
1
1
1
1
1
1
1
1
1
1
1
1
1
1
1
1
1
1
1
1
1
1
1
1
1
1
1
1
1
1
1
1
1
1
1
1
1
1
1
1
1
1
1
1
1
1
1
1
1
1
1
1
1
1
1
1
1
1
1
1
1
1
1
1
1
1
1
1
1
1
1
1
1
1
1
1
1
1
1
1
1
1
1
1
1
1
1
1
1
1
1
1
1
1
1
1
1
1
1
1
1
1
1
1
1
1
1
1
1
1
1
1
1
1
1
1
1
1
1
1
1
1
1
1
1
1
1
1
1
1
1
1
1
1
1
1
1
1
1
1
1
1
1
1
1
1
1
1
1
1
1
1
1
1
1
1
1
1
1
1
1
1
1
1
1
1
1
1
1
1
1
1
1
1
1
1
1
1
1
1
1
1
1
1
1
1
1
1
1
1
1
1
1
1
1
1
1
1
1
1
1
1
1
1
1
1
1
1
1
1
1
1
1
1
1
1
1
1
1
1
1
1
1
1
1
1
1
1
1
1
1
1
1
1
1
1
1
1
1
1
1
1
1
1
1
1
1
1
1
1
1
1
1
1
1
1
1
1
1
1
1
1
1
1
1
1
1
1
1
1
1
1
1
1
1
1
1
1
1
1
1
1
1
1
1
1
1
1
1
1
1
1
1
1
1
1
1
1
1
1
1
1
1
1
1
1
1
1
1
1
1
1
1
1
1
1
1
1
1
1
1
1
1
1
1
1
1
1
1
1
1
1
1
1
1
1
1
1
1
1
1
1
1
1
1
1
1
1
1
1
1
1
1
1
1
1
1
1
1
1
1
1
1
1
1
1
1
1
1
1
1
1
1
1
1
1
1
1
1
1
1
1
1
1
1
1
1
1
1
1
1
1
1
1
1
1
1
1
1
1
1
1
1
1
1
1
1
1
1
1
1
1
1
1
1
1
1
1
1
1
1
1
1
1
1
1
1
1
1
1
1
1
1
1
1
1
1
1
1
1
1
1
1
1
1
1
1
1
1
1
1
1
1
1
1
1
1
1
1
1
1
1
1
1
1
1
1
1
1
1
1
1
1
1
1
1
1
1
1
1
1
1
1
1
1
1
1
1
1
1
1
1
1
1
1
1
1
1
1
1
1
1
1
1
1
1
1
1
1
1
1
1
1
1
1
1
1
1
1
1
1
1
1
1
1
1
1
1
1
1
1
1
1
1
1
1
1
1
1
1
1
1
1
1
1
1
1
1
1
1
1
1
1
1
1
1
1
1
1
1
1
1
1
1
1
1
1
1
1
1
1
1
1
1
1
1
1
1
1
1
1
1
1
1
1
1
1
1
1
1
1
1
1
1
1
1
1
1
1
1
1
1
1
1
1
1
1
1
1
1
1
1
1
1
1
1
1
1
1
1
1
1
1
1
1
1
1
1
1
1
1
1
1
1
1
1
1
1
1
1
1
1
1
1
1
1
1
1
1
1
1
1
1
1
1
1
1
1
1
1
1
1
1
1
1
1
1
1
1
1
1
1
1
1
1
1
1
1
1
1
1
1
1
1
1
1
1
1
1
1
1
1
1
1
1
1
1
1
1
1
1
1
1
1
1
1
1
1
1
1
1
1
1
1
1
1
1
1
1
1
1
1
1
1
1
1
1
1
1
1
1
1
1
1
1
1
1
1
1
1
1
1
1
1
1
1
1
1
1
1
1
1
1
1
1
1
1
1
1
1
1
1
1
1
1
1
1
1
1
1
1
1
1
1
1
1
1
1
1
1
1
1
1
1
1
1
1
1
1
1
1
1
1
1
1
1
1
1
1
1
1
1
1
1
1
1
1
1
1
1
1
1
1
1
1
1
1
1
1
1
1
1
1
1
1
1
1
1
1
1
1
1
1
1
1
1
1
1
1
1
1
1
1
1
1
1
1
1
1
1
1
1
1
1
1
1
1
1
1
1
1
1
1
1
1
1
1
1
1
1
1
1
1
1
1
1
1
1
1
1
1
1
1
1
1
1
1
1
1
1
1
1
1
1
1
1
1
1
1
1
1
1
1
1
1
1
1
1
1
1
1
1
1
1
1
1
1
1
1
1
1
1
1
1
1
1
1
1
1
1
1
1
1
1
1
1
1
1
1
1
1
1
1
1
1
1
1
1
1
1
1
1
1
1
1
1
1
1
1
1
1
1
1
1
1
1
1
1
1
1
1
1
1
1
1
1
1
1
1
1
1
1
1
1
1
1
1
1
1
1
1
1
1
1
1
1
1
1
1
1
1
1
1
1
1
1
1
1
1
1
1
1
1
1
1
1
1
1
1
1
1
1
1
1
1
1
1
1
1
1
1
1
1
1
1
1
1
1
1
1
1
1
1
1
1
1
1
1
1
1
1
1
1
1
1
1
1
1
1
1
1
1
1
1
1
1
1
1
1
1
1
1
1
1
1
1
1
1
1
1
1
1
1
1
1
1
1
1
1
1
1
1
1
1
1
1
1
1
1
1
1
1
1
1
1
1
1
1
1
1
1
1
1
1
1
1
1
1
1
1
1
1
1
1
1
1
1
1
1
1
1
1
1
1
1
1
1
1
1
1
1
1
1
1
1
1
1
1
1
1
1
1
1
1
1
1
1
1
1
1
1
1
1
1
1
1
1
1
1
1
1
1
1
1
1
1
1
1
1
1
VECTORS force double
-3.7331 0 9.691
17.5776 0 0.410017
-37.0243 0 -11.7495
22.7196 0 -6.15978
-12.9386 0 13.3723
11.3883 0 20.0392
26.0517 0 -29.6803
22.9137 0 -27.9832
11.2456 0 -13.4911
-2.21699 0 11.006
-4.76758 0 -22.9124
0.38429 0 10.3449
8.51043 0 2.40587
10.6156 0 4.18805
10.1125 0 14.0483
4.42727 0 10.9034
-79.8434 0 -54.7946
177.029 0 6.88328
-0.760779 0 1.56164
3.98052 0 20.0263
-12.0673 0 7.634
2.15685 0 -11.6499
-17.8362 0 10.4881
-4.95397 0 -16.4423
44.0052 0 -3.61772
3.11232 0 -53.0534
11.4767 0 -6.98162
2.64983 0 14.2852
11.8483 0 -5.51709
6.50289 0 -27.0861
-6.50307 0 -27.0872
-11.8482 0 -5.517
-2.64985 0 14.2853
-11.477 0 -6.98151
-3.1123 0 -53.0534
-44.0052 0 -3.61775
4.95397 0 -16.4423
17.8362 0 10.4881
-2.15685 0 -11.6499
12.0673 0 7.63401
-3.98063 0 20.0263
0.760783 0 1.56164
-177.03 0 6.88043
79.8426 0 -54.7933
-4.42836 0 10.9029
-10.1125 0 14.0483
-10.6156 0 4.18805
-8.51041 0 2.40589
-0.384341 0 10.3448
4.76777 0 -22.9126
2.2169 0 11.006
-11.2455 0 -13.4911
-22.9137 0 -27.9832
-26.0517 0 -29.6803
-11.3883 0 20.0392
12.9386 0 13.3723
-22.7196 0 -6.15976
37.0242 0 -11.7495
-17.5775 0 0.410014
3.73309 0 9.69101
12.0015 0 5.80429
-4.87731 0 21.1903
31.5183 0 48.475
-12.3291 0 -11.8452
-1.749 0 -1.84219
-32.4855 0 38.0027
-30.8266 0 24.6417
-21.2882 0 38.9228
1.4742 0 12.2525
-6.45898 0 8.17533
7.64815 0 22.5878
0.187774 0 0.314164
4.87962 0 17.1746
-13.5488 0 -1.73246
22.9649 0 1.59582
-7.55191 0 12.6343
-87.102 0 61.9421
26.8938 0 -37.9045
-6.93594 0 9.21667
9.94397 0 18.9612
10.3223 0 4.18176
0 0 0
-3.43146 0 6.09381
10.5179 0 -3.84603
-23.1602 0 -3.16497
6.8666 0 68.2035
-5.68952 0 -8.41868
-37.4475 0 37.2984
30.5833 0 -8.67501
6.89511 0 30.4107
-6.89487 0 30.4118
-30.5834 0 -8.67551
37.4479 0 37.2985
5.68957 0 -8.41882
-6.86668 0 68.2035
23.1603 0 -3.16505
-10.5182 0 -3.84599
3.43152 0 6.09405
0 0 0
-10.3223 0 4.18176
-9.94386 0 18.9612
6.93613 0 9.21657
-26.8946 0 -37.9072
87.1051 0 61.944
7.55195 0 12.6342
-22.965 0 1.59547
13.5491 0 -1.73257
-4.87961 0 17.1748
-0.187744 0 0.314177
-7.64819 0 22.5881
6.45892 0 8.17525
-1.47419 0 12.2525
21.2882 0 38.9228
30.8266 0 24.6417
32.4856 0 38.0027
1.74898 0 -1.84221
12.3291 0 -11.8452
-31.5183 0 48.4749
4.87733 0 21.1903
-12.0015 0 5.80429
5.83982 0 -6.99493
-36.8636 0 -8.28725
18.3034 0 -20.0192
-10.9578 0 -4.4369
7.61583 0 -2.87702
9.15444 0 -10.4987
-11.5424 0 -23.8111
10.0885 0 13.1358
6.25789 0 -11.062
-3.46274 0 0.599596
10.1423 0 -7.82476
-1.66799 0 2.24574
-18.1353 0 -4.10652
-15.2361 0 -10.9953
-13.6628 0 45.3174
10.3353 0 -18.7852
8.15957 0 -22.6999
-2.68427 0 -2.46345
-13.5682 0 -32.8441
2.25726 0 1.63245
-11.5965 0 5.82083
7.19348 0 -0.107721
13.8889 0 2.81498
6.44131 0 18.4401
0.671853 0 2.75064
-39.5813 0 -44.3594
1.9753 0 19.0042
0.458752 0 18.6077
0.88498 0 -8.72975
2.79102 0 -21.0877
-2.79121 0 -21.0878
-0.884703 0 -8.7296
-0.452494 0 18.6096
-1.97785 0 19.0147
39.5699 0 -44.3623
-0.671813 0 2.75007
-6.43993 0 18.4388
-13.8892 0 2.81708
-7.19374 0 -0.107723
11.5977 0 5.82381
-2.25777 0 1.6328
13.5677 0 -32.8314
2.68464 0 -2.46327
-8.15963 0 -22.6994
-10.3352 0 -18.7864
13.6627 0 45.3181
15.2358 0 -10.9953
18.1341 0 -4.10625
1.66795 0 2.24569
-10.1424 0 -7.8249
3.4627 0 0.599655
-6.25786 0 -11.062
-10.0885 0 13.1358
11.5425 0 -23.8111
-9.15445 0 -10.4987
-7.61584 0 -2.87701
10.9578 0 -4.43691
-18.3034 0 -20.0192
36.8636 0 -8.28725
-5.83982 0 -6.99492
2.6636 0 -3.86611
-31.6423 0 -9.33295
65.4521 0 -0.163936
-12.12 0 -4.45054
29.1211 0 -8.15734
-0.195273 0 -3.10783
2.83694 0 23.6129
-6.6037 0 26.4343
-48.9581 0 -1.86884
27.3525 0 14.2848
4.96673 0 4.45363
-21.9811 0 -19.5935
-7.45935 0 0.600302
8.62461 0 -12.7263
-14.7283 0 -6.15636
-21.8653 0 3.08357
-69.593 0 1.04263
7.10482 0 8.23474
1.14035 0 51.1425
-1.90624 0 -0.0296385
-7.36922 0 -10.6042
-6.23315 0 -4.36398
7.80011 0 -1.13579
9.36943 0 -8.02821
-0.118608 0 7.15628
-4.50445 0 -10.641
-22.5424 0 149.37
14.204 0 -18.8064
-2.1845 0 3.05992
-1.54482 0 5.76863
1.54485 0 5.76887
2.18544 0 3.0606
-14.2225 0 -18.8246
22.5406 0 149.351
4.49927 0 -10.6208
0.119922 0 7.14828
-9.37421 0 -8.02407
-7.80014 0 -1.13573
6.23079 0 -4.36818
7.36978 0 -10.6037
1.90658 0 -0.0295522
-1.13935 0 51.1323
-7.10474 0 8.23474
69.5926 0 1.04271
21.8664 0 3.08313
14.7281 0 -6.15629
-8.62414 0 -12.7262
7.45816 0 0.599549
21.9812 0 -19.5936
-4.96674 0 4.45366
-27.352 0 14.2849
48.9579 0 -1.86883
6.60368 0 26.4343
-2.83696 0 23.6129
0.195285 0 -3.10786
-29.1212 0 -8.15739
12.12 0 -4.45056
-65.4521 0 -0.163923
31.6423 0 -9.33296
-2.6636 0 -3.86612
15.619 0 9.70007
7.99095 0 38.2749
-17.8285 0 -19.4151
-14.8956 0 33.5668
-4.48187 0 -31.3812
-41.5381 0 -154.222
15.5134 0 11.5023
-14.5082 0 -5.11877
-25.3399 0 6.04924
13.8421 0 -10.3609
44.6136 0 -7.49573
19.7752 0 21.3943
14.3512 0 10.8781
5.20774 0 -5.6402
-76.2602 0 -64.4012
36.1462 0 1.65568
24.6676 0 27.5657
88.9095 0 -37.7915
-30.503 0 51.547
28.1356 0 -20.8514
-11.3427 0 1.20126
-7.39525 0 14.1594
-29.9997 0 -5.91366
-5.24972 0 -13.7151
8.95659 0 -2.38979
-79.488 0 1.55892
51.916 0 39.3633
-26.065 0 19.8844
60.2664 0 -108.673
0.629664 0 1.50663
-0.629829 0 1.50643
-60.2722 0 -108.676
26.0708 0 19.8847
-51.9285 0 39.3914
79.5255 0 1.56272
-8.95353 0 -2.41797
5.19466 0 -13.6898
30.0458 0 -5.90316
7.39628 0 14.1583
11.3445 0 1.20207
-28.1406 0 -20.8538
30.5054 0 51.5487
-88.9067 0 -37.7873
-24.6716 0 27.562
-36.1469 0 1.65621
76.2555 0 -64.3946
-5.20756 0 -5.63972
-14.3488 0 10.8786
-19.7754 0 21.3946
-44.6139 0 -7.4958
-13.8423 0 -10.3609
25.3401 0 6.04924
14.5082 0 -5.11877
-15.5134 0 11.5024
41.5381 0 -154.223
4.48186 0 -31.3812
14.8956 0 33.5668
17.8285 0 -19.4151
-7.99094 0 38.2749
-15.619 0 9.70007
-24.038 0 -12.6768
5.21569 0 17.191
-11.2504 0 -30.6314
23.3893 0 24.1685
-3.29511 0 -3.46083
-5.10081 0 35.2528
45.0822 0 139.873
14.6189 0 -5.90467
-18.584 0 -15.9926
34.3158 0 -38.5746
-23.0353 0 16.2012
0.557976 0 1.35809
-64.153 0 4.02844
-24.3771 0 32.1543
-3.79545 0 -67.2455
34.4005 0 62.9147
1.72749 0 -25.8806
-4.55938 0 5.14163
-14.8916 0 -12.1418
1.20988 0 -7.92199
7.26838 0 3.21709
12.1042 0 -35.6898
7.09215 0 5.30728
7.76658 0 -13.4338
20.677 0 -12.9708
12.9814 0 -36.4605
-56.1998 0 -49.3651
60.5526 0 0.0684217
-9.18041 0 -4.03146
4.8416 0 -8.61493
-4.84019 0 -8.6197
9.18567 0 -4.01997
-60.532 0 0.0656942
56.1861 0 -49.4317
-12.958 0 -36.4824
-20.6719 0 -12.9798
-7.77673 0 -13.4584
-7.09335 0 5.30822
-12.1045 0 -35.6834
-7.26699 0 3.21783
-1.20916 0 -7.91885
14.889 0 -12.1396
4.55788 0 5.14422
-1.72951 0 -25.884
-34.3955 0 62.9072
3.79476 0 -67.2453
24.3776 0 32.1549
64.1528 0 4.02825
-0.557991 0 1.35808
23.0355 0 16.2015
-34.3158 0 -38.5745
18.5842 0 -15.9926
-14.6189 0 -5.90464
-45.0823 0 139.873
5.10093 0 35.2528
3.29511 0 -3.46083
-23.3893 0 24.1685
11.2504 0 -30.6314
-5.2157 0 17.191
24.0379 0 -12.6768
23.0698 0 6.53786
3.25655 0 1.38894
-21.7258 0 -12.9356
22.2798 0 1.58265
-0.807315 0 -2.42333
3.78936 0 -3.05682
-5.1028 0 8.90342
-19.1061 0 -2.6775
-3.68304 0 32.7114
-8.82563 0 -24.2625
-2.32411 0 8.53104
-4.47993 0 -6.55297
-42.0252 0 2.82156
51.106 0 -2.69484
20.8102 0 37.2813
-81.3872 0 47.0383
-51.5622 0 -62.4624
93.6025 0 -29.7049
0.889567 0 11.6135
-15.6475 0 -4.56607
-98.4169 0 3.33998
62.7667 0 12.0592
-19.3222 0 16.0844
-68.6521 0 -62.6138
-8.01779 0 59.5779
13.3822 0 36.6257
-14.9052 0 -12.353
-10.6021 0 -0.022555
3.77736 0 -17.652
-3.25614 0 0.650365
3.26305 0 0.650443
-3.75022 0 -17.656
10.5869 0 -0.0387805
14.9026 0 -12.3406
-13.4057 0 36.6981
8.02302 0 59.5746
68.6649 0 -62.6235
19.3165 0 16.1116
-62.76 0 12.0569
98.4065 0 3.33729
15.6475 0 -4.566
-0.887969 0 11.6076
-93.5997 0 -29.7045
51.5758 0 -62.4662
81.3879 0 47.0391
-20.8101 0 37.2806
-51.1057 0 -2.69481
42.0256 0 2.82138
4.47992 0 -6.55302
2.32376 0 8.53113
8.82552 0 -24.2623
3.68293 0 32.7113
19.106 0 -2.67754
5.10279 0 8.90338
-3.7894 0 -3.05682
0.80731 0 -2.42332
-22.2797 0 1.5826
21.7258 0 -12.9357
-3.25656 0 1.38894
-23.0698 0 6.53785
5.2407 0 3.53483
5.3138 0 -51.2299
-20.2259 0 -25.5403
29.613 0 16.7488
38.735 0 25.8025
1.2226 0 4.33662
-29.6144 0 -20.9823
39.2648 0 9.68816
4.88409 0 -6.41385
0.871888 0 -8.5027
-3.12064 0 39.2246
6.73773 0 -10.2871
-4.33159 0 -3.97487
2.5153 0 5.42002
-32.0781 0 1.18875
43.127 0 6.1635
10.4886 0 2.0796
-5.68541 0 -76.1855
-1.38314 0 14.1269
-7.68827 0 2.11417
-4.31263 0 -2.22069
29.8383 0 7.87839
24.1867 0 20.4088
11.6111 0 -7.87005
-4.82977 0 102.558
71.9812 0 -32.8812
-1.01283 0 -5.54974
8.47382 0 4.67978
6.09157 0 29.3472
-8.01222 0 10.2504
8.0087 0 10.246
-6.07324 0 29.3455
-8.51564 0 4.66381
1.01696 0 -5.55115
-71.9803 0 -32.8866
4.80879 0 102.576
-11.5879 0 -7.87185
-24.1821 0 20.4075
-29.8435 0 7.87706
4.30742 0 -2.21204
7.68881 0 2.11431
1.37971 0 14.1286
5.68921 0 -76.1705
-10.4887 0 2.08002
-43.127 0 6.16332
32.077 0 1.18878
-2.51569 0 5.42008
4.3322 0 -3.97513
-6.73769 0 -10.2866
3.12048 0 39.2244
-0.871801 0 -8.50289
-4.88413 0 -6.41381
-39.2649 0 9.68802
29.6144 0 -20.9823
-1.22261 0 4.33664
-38.735 0 25.8026
-29.613 0 16.7488
20.2259 0 -25.5403
-5.31381 0 -51.2299
-5.24066 0 3.53488
-3.23081 0 4.75079
57.0203 0 20.7892
0.131764 0 -2.53203
-30.8492 0 -19.3148
8.49536 0 -11.9761
-20.3882 0 -14.4083
12.5134 0 11.3204
14.8451 0 -36.3718
-51.3523 0 -46.2798
44.1515 0 5.27316
8.93235 0 3.433
-54.0989 0 19.3545
21.0521 0 2.57765
24.5939 0 -2.67414
21.8562 0 5.5515
-13.1608 0 -1.54044
4.65355 0 -5.50684
-6.85161 0 2.03415
29.693 0 -0.956395
-4.3999 0 -5.27998
14.1032 0 -10.7519
-37.3949 0 -45.4125
26.5722 0 -68.7634
0.0466376 0 -8.3028
6.47517 0 6.61666
10.7493 0 2.86724
3.05629 0 3.87124
-4.1014 0 2.47052
-35.8739 0 17.8614
40.7945 0 -29.4406
-40.7647 0 -29.4376
35.8361 0 17.852
4.11763 0 2.46457
-3.05254 0 3.8844
-10.7539 0 2.86426
-6.47175 0 6.61856
-0.0485879 0 -8.30317
-26.6572 0 -68.9085
37.3968 0 -45.4111
-14.0963 0 -10.7582
4.39423 0 -5.26458
-29.6914 0 -0.96444
6.85081 0 2.01979
-4.65392 0 -5.50565
13.1602 0 -1.54062
-21.8554 0 5.55068
-24.5936 0 -2.67453
-21.0525 0 2.57767
54.0994 0 19.3542
-8.93213 0 3.43299
-44.1517 0 5.27333
51.3524 0 -46.28
-14.8452 0 -36.3721
-12.5133 0 11.3206
20.3882 0 -14.4083
-8.49553 0 -11.9763
30.8492 0 -19.3146
-0.131803 0 -2.53203
-57.0202 0 20.7891
3.23078 0 4.75081
-44.3185 0 32.4554
19.4299 0 -4.92728
-79.4436 0 -67.2066
31.3958 0 -9.24777
7.77484 0 5.21875
-3.47861 0 -21.1418
45.2977 0 28.369
-5.20294 0 30.1014
-25.5774 0 -9.40323
7.45225 0 40.5782
0.779854 0 -0.44157
-12.4605 0 -10.0492
-13.0628 0 -28.399
-15.77 0 -17.8905
3.46957 0 13.1999
9.05463 0 2.8487
-17.2033 0 40.5205
7.30873 0 -6.32998
30.2312 0 114.849
-39.6823 0 12.5173
-72.3161 0 20.2969
5.76514 0 -20.4583
-9.90161 0 109.589
3.21004 0 -16.6512
-20.0171 0 -42.4467
35.4271 0 -2.51219
46.7007 0 -15.1242
-0.355275 0 -20.2561
12.3018 0 -14.3998
-11.576 0 -1.44371
11.5478 0 -1.47125
-12.3401 0 -14.3484
0.357068 0 -20.2331
-46.7595 0 -15.1663
-35.3978 0 -2.50076
19.9702 0 -42.5278
-3.18091 0 -16.6062
9.98049 0 109.705
-5.76128 0 -20.4466
72.3041 0 20.2784
39.6775 0 12.5154
-30.2459 0 114.848
-7.30831 0 -6.33021
17.2066 0 40.5247
-9.05414 0 2.84932
-3.47025 0 13.2001
15.7705 0 -17.8905
13.0626 0 -28.3988
12.4604 0 -10.0492
-0.779835 0 -0.441529
-7.45232 0 40.5783
25.5781 0 -9.40323
5.20306 0 30.102
-45.2979 0 28.3689
3.47863 0 -21.1416
-7.77497 0 5.2186
-31.3951 0 -9.24806
79.4432 0 -67.2062
-19.4299 0 -4.92728
44.3185 0 32.4554
3.71468 0 21.8727
-23.2036 0 -29.3627
25.5381 0 23.6071
-13.6367 0 26.462
43.1125 0 -5.23504
-19.3854 0 10.7935
0.0609934 0 -6.99308
-2.61965 0 13.1498
7.95843 0 -3.95423
25.0432 0 4.49867
1.5334 0 -18.2375
-5.15775 0 3.30171
13.4284 0 24.0662
-62.0248 0 11.9223
65.5725 0 -8.22584
-8.98247 0 -7.85331
-5.25248 0 -17.9107
37.1797 0 -11.8566
5.88536 0 -27.7108
5.47372 0 -7.40978
13.7116 0 -22.2736
1.54631 0 -1.53934
38.5743 0 13.1403
7.55543 0 5.64014
-0.820675 0 21.0374
-14.6708 0 -10.4175
-49.9579 0 38.6559
-7.99684 0 -3.25865
-9.06085 0 21.2171
-206.67 0 -21.2158
206.732 0 -21.1566
9.12427 0 21.1672
7.94456 0 -3.20179
50.009 0 38.6854
14.6621 0 -10.4208
0.790584 0 20.9863
-7.5502 0 5.66979
-38.533 0 13.1186
-1.54871 0 -1.5369
-13.7088 0 -22.2667
-5.47768 0 -7.40445
-5.88726 0 -27.7119
-37.1884 0 -11.8528
5.25128 0 -17.9095
8.98281 0 -7.85395
-65.5713 0 -8.22588
62.0231 0 11.9222
-13.428 0 24.066
5.15793 0 3.30154
-1.53399 0 -18.2359
-25.0436 0 4.49877
-7.95835 0 -3.95409
2.61943 0 13.1493
-0.061091 0 -6.9932
19.3857 0 10.7936
-43.1125 0 -5.2347
13.6367 0 26.4617
-25.5381 0 23.6072
23.2035 0 -29.3627
-3.71461 0 21.8727
16.0788 0 -7.45324
10.473 0 28.817
-14.0448 0 -5.65372
9.26452 0 -24.2674
-11.8883 0 26.0565
-0.74236 0 1.51675
0.952413 0 3.90099
-15.0537 0 -1.59788
-5.92559 0 1.21018
2.15605 0 -0.673068
15.9659 0 -85.8123
23.6313 0 14.9081
6.44889 0 -20.616
-51.4626 0 -29.6995
-13.1708 0 -47.6914
-23.5855 0 14.2053
-2.13055 0 12.5065
-70.7444 0 -44.7824
-91.5933 0 -68.8847
7.47716 0 0.865419
-4.57759 0 -30.5104
29.4154 0 27.4448
3.9865 0 -1.68704
-40.4024 0 -10.8107
21.9371 0 17.2082
-9.96422 0 52.4827
-36.4888 0 -26.5116
6.79022 0 -11.0594
0.911157 0 -10.0652
8.79926 0 19.6861
-8.79706 0 19.715
-0.916156 0 -10.0777
-6.79639 0 -11.0702
36.4842 0 -26.5056
9.99058 0 52.5664
-21.9599 0 17.2192
40.4117 0 -10.7645
-3.9723 0 -1.68554
-29.4151 0 27.4365
4.56577 0 -30.4896
-7.46645 0 0.867788
91.5674 0 -68.8719
70.7577 0 -44.7931
2.13003 0 12.5075
23.5839 0 14.204
13.1735 0 -47.6903
51.4649 0 -29.7071
-6.44888 0 -20.6157
-23.6302 0 14.9066
-15.9677 0 -85.8139
-2.15601 0 -0.673141
5.92556 0 1.21027
15.0536 0 -1.5979
-0.952068 0 3.90078
0.741974 0 1.51685
11.8883 0 26.0563
-9.2645 0 -24.2674
14.0447 0 -5.65382
-10.4727 0 28.8169
-16.0791 0 -7.45313
14.7778 0 -7.54293
5.63181 0 -4.20994
10.6946 0 26.8523
-8.10376 0 -8.77848
11.1722 0 9.86613
9.70559 0 0.885283
-8.75521 0 34.6436
14.6318 0 2.76164
-3.551 0 -1.07471
3.16158 0 -6.95793
-38.8291 0 73.7948
16.8174 0 19.8407
-55.4341 0 9.3957
43.8042 0 10.8838
32.9897 0 26.1582
28.8474 0 53.1949
-3.86411 0 -12.1162
25.3788 0 0.126937
56.5207 0 45.4211
-37.1564 0 2.43728
96.2579 0 60.0073
6.17748 0 18.7808
4.42687 0 -0.00261265
6.84059 0 0.180522
63.0178 0 -44.7583
22.2976 0 0.927819
1.61333 0 31.3752
23.0816 0 -4.17219
-6.87197 0 -5.99565
-8.30609 0 -26.5888
8.31965 0 -26.6263
6.88333 0 -5.99882
-23.0787 0 -4.16489
-1.60084 0 31.3758
-22.3031 0 0.922395
-63.0171 0 -44.7596
-6.84125 0 0.179306
-4.4363 0 -0.00476686
-6.17428 0 18.7564
-96.2302 0 60.004
37.1573 0 2.43123
-56.5309 0 45.4277
-25.3776 0 0.126765
3.8638 0 -12.1159
-28.8463 0 53.1959
-32.9943 0 26.1651
-43.8063 0 10.8843
55.4358 0 9.39541
-16.8173 0 19.8405
38.8303 0 73.7966
-3.1618 0 -6.95795
3.55093 0 -1.07473
-14.632 0 2.76146
8.75546 0 34.6438
-9.70558 0 0.885371
-11.1722 0 9.86615
8.10373 0 -8.77844
-10.6945 0 26.8524
-5.63181 0 -4.21004
-14.7778 0 -7.54291
33.7569 0 -57.7665
-3.66696 0 6.91558
0.0794067 0 -0.76192
-33.2146 0 -4.90042
9.74904 0 -0.801089
-51.4978 0 -11.7316
51.0316 0 -9.31404
-39.7876 0 -38.6823
2.12186 0 -4.06233
-66.039 0 -72.4509
23.9948 0 -17.2417
-2.66084 0 -15.0087
-31.6159 0 -22.0859
24.9898 0 -10.3035
31.2054 0 -37.807
-99.0882 0 -65.2451
84.9529 0 -3.9338
-4.23956 0 -7.26781
4.82316 0 9.99212
-0.981411 0 -5.25267
11.4665 0 4.21341
7.39469 0 21.1088
-3.49619 0 7.57624
-3.38721 0 -5.09404
-39.9494 0 74.0848
-67.9954 0 -65.8267
-4.04464 0 -14.1246
-1.4179 0 -6.16599
15.0801 0 -15.3685
-5.32175 0 4.83823
5.31432 0 4.84708
-15.1319 0 -15.3247
1.42063 0 -6.15303
4.03551 0 -14.139
68.0111 0 -65.8546
39.9293 0 74.0341
3.38701 0 -5.09283
3.49418 0 7.58359
-7.3935 0 21.1016
-11.4661 0 4.2138
0.97871 0 -5.25188
-4.82369 0 9.99276
4.23944 0 -7.26752
-84.9571 0 -3.93998
99.0763 0 -65.1446
-31.2137 0 -37.8157
-24.9922 0 -10.3092
31.6146 0 -22.0845
2.66166 0 -15.0104
-23.9944 0 -17.2419
66.0377 0 -72.4493
-2.12183 0 -4.06229
39.7875 0 -38.6823
-51.0316 0 -9.31386
51.4978 0 -11.7315
-9.74901 0 -0.80114
33.2145 0 -4.90043
-0.0793536 0 -0.761998
3.66686 0 6.91555
-33.7569 0 -57.7667
-80.7649 0 86.8267
89.9453 0 -11.6811
23.7926 0 -38.2345
-62.0819 0 9.01888
63.4281 0 0.717144
-47.6848 0 24.6495
39.3023 0 -45.6288
-19.1908 0 -31.5641
25.1495 0 45.9198
-48.6579 0 -42.3647
62.2423 0 59.092
-36.3904 0 -40.9176
-3.83607 0 -4.73223
-46.6633 0 45.7754
15.2113 0 -38.7497
33.8464 0 16.5992
-31.1164 0 23.1981
21.5867 0 56.0747
9.6992 0 2.17871
-4.53811 0 -3.27901
4.09602 0 -45.0706
-10.0128 0 -3.51958
1.27537 0 -15.429
-66.0664 0 17.6381
65.8062 0 -23.0699
43.1396 0 65.9175
22.7347 0 -12.3996
-6.24926 0 19.2736
-6.90945 0 6.9437
4.22888 0 16.6762
-4.24035 0 16.7269
6.92959 0 6.90252
6.27154 0 19.2774
-22.7221 0 -12.3826
-43.1634 0 65.9431
-65.7966 0 -23.0641
66.0567 0 17.6285
-1.31146 0 -15.4376
10.0355 0 -3.52852
-4.08102 0 -45.0734
4.53753 0 -3.28202
-9.69791 0 2.17878
-21.5703 0 55.9601