# vtk DataFile Version 3.0
SiWiRVisFile
ASCII
DATASET UNSTRUCTURED_GRID
POINTS 1600 DOUBLE
79.2441 100 76.2151
80.3567 100 76.4907
81.4094 100 76.7955
82.6643 100 76.6229
83.7589 100 76.7389
84.8384 100 76.7979
85.9202 100 76.8152
87.025 100 76.8238
88.1285 100 76.8332
89.2686 100 76.8429
90.3962 100 76.8197
91.467 100 76.7494
92.5138 100 76.7069
93.5993 100 76.7051
94.7201 100 76.72
95.886 100 76.692
96.9449 100 76.6584
98.0218 100 76.6335
99.2093 100 76.6074
100.37 100 76.2703
101.769 100 73.724
102.756 100 74.9225
103.775 100 74.3141
104.953 100 74.3221
106.108 100 74.3005
107.239 100 74.3075
108.356 100 74.3203
109.471 100 74.2987
110.583 100 74.2622
111.692 100 74.2346
112.801 100 74.2346
113.91 100 74.2622
115.022 100 74.2987
116.136 100 74.3203
117.253 100 74.3075
118.385 100 74.3005
119.539 100 74.3221
120.717 100 74.3141
121.736 100 74.9225
122.723 100 73.724
124.122 100 76.2703
125.283 100 76.6074
126.471 100 76.6335
127.548 100 76.6584
128.606 100 76.692
129.772 100 76.72
130.893 100 76.7051
131.979 100 76.7069
133.025 100 76.7494
134.096 100 76.8197
135.224 100 76.8429
136.364 100 76.8332
137.467 100 76.8238
138.572 100 76.8152
139.654 100 76.7979
140.734 100 76.7389
141.828 100 76.6229
143.083 100 76.7955
144.136 100 76.4907
145.248 100 76.2151
79.4174 100 77.3187
80.4862 100 77.6083
82.1789 100 77.5541
83.2001 100 77.696
84.2714 100 77.75
85.3311 100 77.7939
86.3891 100 77.8065
87.4941 100 77.81
88.6534 100 77.807
89.7866 100 77.7685
90.9228 100 77.7488
92.043 100 77.729
93.1208 100 77.6947
94.228 100 77.6588
95.3208 100 77.6575
96.406 100 77.6927
97.4337 100 77.7126
98.4849 100 77.6718
99.4954 100 77.6979
100.482 100 77.3633
102.044 100 75.7703
102.415 100 76.9639
103.478 100 76.2197
104.622 100 76.2623
105.704 100 75.9407
106.921 100 75.6781
108.124 100 75.4479
109.313 100 75.3278
110.494 100 75.3013
111.666 100 75.3055
112.827 100 75.3055
113.998 100 75.3013
115.18 100 75.3278
116.369 100 75.4479
117.571 100 75.6781
118.788 100 75.9407
119.871 100 76.2623
121.014 100 76.2197
122.078 100 76.9639
122.448 100 75.7703
124.011 100 77.3633
124.997 100 77.6979
126.008 100 77.6718
127.059 100 77.7126
128.086 100 77.6927
129.172 100 77.6575
130.264 100 77.6588
131.372 100 77.6947
132.449 100 77.729
133.57 100 77.7488
134.706 100 77.7685
135.839 100 77.807
136.998 100 77.81
138.103 100 77.8065
139.161 100 77.7939
140.221 100 77.75
141.292 100 77.696
142.313 100 77.5541
144.006 100 77.6083
145.075 100 77.3187
79.5848 100 78.3729
80.566 100 78.8735
81.3956 100 78.2396
82.4631 100 78.6236
83.5591 100 78.7801
84.6396 100 78.7871
85.7796 100 78.8081
86.8964 100 78.812
88.002 100 78.7731
89.146 100 78.7163
90.3223 100 78.7116
91.5074 100 78.7144
92.7569 100 78.6911
94.0068 100 78.7539
95.1978 100 78.8097
96.294 100 78.8392
97.3554 100 78.8495
98.4586 100 78.8117
99.4758 100 78.7934
100.529 100 78.4239
101.777 100 78.3427
103.109 100 77.8744
104.471 100 77.9143
105.529 100 78.0199
106.557 100 77.9957
107.675 100 77.717
108.79 100 77.6269
109.754 100 77.1829
110.78 100 76.9506
111.722 100 76.4844
112.77 100 76.4844
113.712 100 76.9506
114.738 100 77.1829
115.703 100 77.6269
116.817 100 77.717
117.936 100 77.9957
118.963 100 78.0199
120.021 100 77.9143
121.384 100 77.8744
122.716 100 78.3427
123.964 100 78.4239
125.017 100 78.7934
126.034 100 78.8117
127.137 100 78.8495
128.198 100 78.8392
129.295 100 78.8097
130.486 100 78.7539
131.735 100 78.6911
132.985 100 78.7144
134.17 100 78.7116
135.346 100 78.7163
136.49 100 78.7731
137.596 100 78.812
138.713 100 78.8081
139.853 100 78.7871
140.933 100 78.7801
142.029 100 78.6236
143.097 100 78.2396
143.926 100 78.8735
144.908 100 78.3729
79.6733 100 79.4647
80.7128 100 79.9432
81.6288 100 79.2951
82.8482 100 79.7484
84.1348 100 79.755
85.2439 100 79.7829
86.3162 100 79.779
87.3454 100 79.7406
88.3509 100 79.7648
89.3681 100 79.8237
90.4033 100 79.8111
91.4326 100 79.7823
92.4803 100 79.8175
93.5363 100 79.8381
94.6097 100 79.8204
95.6859 100 79.815
96.8005 100 79.8243
97.9207 100 79.8144
99.0476 100 79.802
100.153 100 79.6387
101.334 100 79.2845
102.471 100 79.1164
103.536 100 78.9764
104.68 100 79.0594
105.647 100 78.9807
106.853 100 78.967
107.937 100 79.0396
108.977 100 78.8742
110.101 100 78.7291
111.453 100 77.9447
113.039 100 77.9447
114.391 100 78.7291
115.516 100 78.8742
116.555 100 79.0396
117.639 100 78.967
118.845 100 78.9807
119.812 100 79.0594
120.957 100 78.9764
122.022 100 79.1164
123.159 100 79.2845
124.339 100 79.6387
125.445 100 79.802
126.572 100 79.8144
127.692 100 79.8243
128.806 100 79.815
129.883 100 79.8204
130.956 100 79.8381
132.012 100 79.8175
133.06 100 79.7823
134.089 100 79.8111
135.124 100 79.8237
136.141 100 79.7648
137.147 100 79.7406
138.176 100 79.779
139.249 100 79.7829
140.358 100 79.755
141.644 100 79.7484
142.864 100 79.2951
143.78 100 79.9432
144.819 100 79.4647
79.7739 100 80.514
80.8148 100 81.029
81.9015 100 80.3499
82.8662 100 80.9848
83.9079 100 80.7986
85.0914 100 80.8319
86.2057 100 80.8296
87.3273 100 80.8546
88.5161 100 80.8853
89.6844 100 80.8474
90.8282 100 80.7919
91.9658 100 80.8217
93.0931 100 80.8393
94.208 100 80.839
95.3099 100 80.8226
96.4107 100 80.8121
97.4718 100 80.8049
98.5 100 80.792
99.5645 100 80.8235
100.616 100 80.6572
101.731 100 80.1967
102.873 100 80.0822
104.226 100 80.0684
105.436 100 80.0486
106.516 100 79.9638
107.638 100 79.9646
108.727 100 79.9968
109.778 100 79.9263
110.744 100 79.6206
111.723 100 79.2808
112.769 100 79.2808
113.749 100 79.6206
114.715 100 79.9263
115.765 100 79.9968
116.854 100 79.9646
117.977 100 79.9638
119.056 100 80.0486
120.266 100 80.0684
121.62 100 80.0822
122.761 100 80.1967
123.877 100 80.6572
124.928 100 80.8235
125.992 100 80.792
127.021 100 80.8049
128.082 100 80.8121
129.182 100 80.8226
130.284 100 80.839
131.399 100 80.8393
132.527 100 80.8217
133.664 100 80.7919
134.808 100 80.8474
135.976 100 80.8853
137.165 100 80.8546
138.287 100 80.8296
139.401 100 80.8319
140.584 100 80.7986
141.626 100 80.9848
142.591 100 80.3499
143.678 100 81.029
144.719 100 80.514
79.8638 100 81.5829
80.8548 100 82.107
81.8384 100 81.467
82.8137 100 82.1013
83.8415 100 81.8644
84.9402 100 81.9269
85.9945 100 81.9432
87.0777 100 81.9429
88.1894 100 81.8952
89.2994 100 81.8659
90.395 100 81.866
91.4815 100 81.8804
92.5645 100 81.8737
93.6596 100 81.8649
94.7627 100 81.8533
95.8733 100 81.8546
97.0187 100 81.8596
98.1538 100 81.869
99.2793 100 81.9045
100.341 100 81.7049
101.385 100 81.2775
102.405 100 81.0883
103.52 100 81.064
104.609 100 81.1378
105.649 100 81.0307
106.835 100 80.8517
108.087 100 80.9369
109.245 100 80.8815
110.39 100 80.6919
111.551 100 80.5062
112.941 100 80.5062
114.103 100 80.6919
115.247 100 80.8815
116.405 100 80.9369
117.657 100 80.8517
118.844 100 81.0307
119.883 100 81.1378
120.972 100 81.064
122.087 100 81.0883
123.107 100 81.2775
124.152 100 81.7049
125.213 100 81.9045
126.339 100 81.869
127.474 100 81.8596
128.619 100 81.8546
129.73 100 81.8533
130.833 100 81.8649
131.928 100 81.8737
133.011 100 81.8804
134.097 100 81.866
135.193 100 81.8659
136.303 100 81.8952
137.415 100 81.9429
138.498 100 81.9432
139.552 100 81.9269
140.651 100 81.8644
141.679 100 82.1013
142.654 100 81.467
143.638 100 82.107
144.629 100 81.5829
79.8888 100 82.6815
80.8349 100 83.174
81.8352 100 82.5729
82.8037 100 83.1895
83.8636 100 82.9784
84.9538 100 83.0359
86.1045 100 83.0149
87.2521 100 82.9812
88.3853 100 82.9726
89.5124 100 82.9882
90.6356 100 82.9901
91.7476 100 82.9972
92.8575 100 82.9878
93.9726 100 82.9795
95.0845 100 82.9691
96.2106 100 82.9686
97.3512 100 82.9716
98.4339 100 82.9788
99.5076 100 83.0168
100.557 100 82.7526
101.755 100 82.2533
102.899 100 82.1941
104.128 100 81.9488
105.237 100 82.178
106.323 100 81.8651
107.407 100 81.9277
108.512 100 81.9594
109.594 100 81.8653
110.66 100 81.7853
111.715 100 81.712
112.777 100 81.712
113.833 100 81.7853
114.898 100 81.8653
115.981 100 81.9594
117.085 100 81.9277
118.17 100 81.8651
119.255 100 82.178
120.364 100 81.9488
121.594 100 82.1941
122.737 100 82.2533
123.935 100 82.7526
124.985 100 83.0168
126.059 100 82.9788
127.141 100 82.9716
128.282 100 82.9686
129.408 100 82.9691
130.52 100 82.9795
131.635 100 82.9878
132.745 100 82.9972
133.857 100 82.9901
134.98 100 82.9882
136.107 100 82.9726
137.24 100 82.9812
138.388 100 83.0149
139.539 100 83.0359
140.629 100 82.9784
141.689 100 83.1895
142.657 100 82.5729
143.657 100 83.174
144.604 100 82.6815
79.7851 100 83.8734
80.7999 100 84.2308
81.8157 100 83.6463
82.7644 100 84.2483
83.822 100 84.0477
84.9558 100 84.0874
86.092 100 84.0749
87.2187 100 84.074
88.3328 100 84.0874
89.438 100 84.1014
90.5418 100 84.1022
91.6386 100 84.1059
92.7354 100 84.0985
93.8432 100 84.0933
94.9515 100 84.0862
96.0736 100 84.0859
97.2161 100 84.0878
98.3158 100 84.0935
99.4109 100 84.1188
100.513 100 83.8105
101.508 100 83.2706
102.57 100 83.1686
103.68 100 82.8215
104.772 100 83.1871
105.898 100 83.004
107.067 100 82.9266
108.266 100 83.063
109.403 100 82.9321
110.533 100 82.9447
111.676 100 82.7995
112.816 100 82.7995
113.96 100 82.9447
115.089 100 82.9321
116.226 100 83.063
117.425 100 82.9266
118.594 100 83.004
119.721 100 83.1871
120.812 100 82.8215
121.923 100 83.1686
122.984 100 83.2706
123.98 100 83.8105
125.082 100 84.1188
126.177 100 84.0935
127.276 100 84.0878
128.419 100 84.0859
129.541 100 84.0862
130.649 100 84.0933
131.757 100 84.0985
132.854 100 84.1059
133.951 100 84.1022
135.054 100 84.1014
136.16 100 84.0874
137.274 100 84.074
138.4 100 84.0749
139.537 100 84.0874
140.67 100 84.0477
141.728 100 84.2483
142.677 100 83.6463
143.692 100 84.2308
144.707 100 83.8734
79.7678 100 84.9141
80.8871 100 85.2966
81.7963 100 84.6933
82.7844 100 85.3055
83.9161 100 85.141
85.0342 100 85.1712
86.1443 100 85.1765
87.2527 100 85.1818
88.3575 100 85.1919
89.4587 100 85.201
90.5632 100 85.2012
91.6637 100 85.2028
92.7671 100 85.1978
93.882 100 85.1947
94.9949 100 85.1896
96.1243 100 85.1899
97.2608 100 85.1935
98.3488 100 85.2051
99.4588 100 85.0886
100.535 100 84.8683
101.599 100 84.2652
[...]
POINT_DATA 1600
SCALARS mass double
LOOKUP_TABLE default
1
1
1
1
1
1
1
1
1
1
1
1
1
1
1
1
1
1
1
1
1
1
1
1
1
1
1
1
1
1
1
1
1
1
1
1
1
1
1
1
1
1
1
1
1
1
1
1
1
1
1
1
1
1
1
1
1
1
1
1
1
1
1
1
1
1
1
1
1
1
1
1
1
1
1
1
1
1
1
1
1
1
1
1
1
1
1
1
1
1
1
1
1
1
1
1
1
1
1
1
1
1
1
1
1
1
1
1
1
1
1
1
1
1
1
1
1
1
1
1
1
1
1
1
1
1
1
1
1
1
1
1
1
1
1
1
1
1
1
1
1
1
1
1
1
1
1
1
1
1
1
1
1
1
1
1
1
1
1
1
1
1
1
1
1
1
1
1
1
1
1
1
1
1
1
1
1
1
1
1
1
1
1
1
1
1
1
1
1
1
1
1
1
1
1
1
1
1
1
1
1
1
1
1
1
1
1
1
1
1
1
1
1
1
1
1
1
1
1
1
1
1
1
1
1
1
1
1
1
1
1
1
1
1
1
1
1
1
1
1
1
1
1
1
1
1
1
1
1
1
1
1
1
1
1
1
1
1
1
1
1
1
1
1
1
1
1
1
1
1
1
1
1
1
1
1
1
1
1
1
1
1
1
1
1
1
1
1
1
1
1
1
1
1
1
1
1
1
1
1
1
1
1
1
1
1
1
1
1
1
1
1
1
1
1
1
1
1
1
1
1
1
1
1
1
1
1
1
1
1
1
1
1
1
1
1
1
1
1
1
1
1
1
1
1
1
1
1
1
1
1
1
1
1
1
1
1
1
1
1
1
1
1
1
1
1
1
1
1
1
1
1
1
1
1
1
1
1
1
1
1
1
1
1
1
1
1
1
1
1
1
1
1
1
1
1
1
1
1
1
1
1
1
1
1
1
1
1
1
1
1
1
1
1
1
1
1
1
1
1
1
1
1
1
1
1
1
1
1
1
1
1
1
1
1
1
1
1
1
1
1
1
1
1
1
1
1
1
1
1
1
1
1
1
1
1
1
1
1
1
1
1
1
1
1
1
1
1
1
1
1
1
1
1
1
1
1
1
1
1
1
1
1
1
1
1
1
1
1
1
1
1
1
1
1
1
1
1
1
1
1
1
1
1
1
1
1
1
1
1
1
1
1
1
1
1
1
1
1
1
1
1
1
1
1
1
1
1
1
1
1
1
1
1
1
1
1
1
1
1
1
1
1
1
1
1
1
1
1
1
1
1
1
1
1
1
1
1
1
1
1
1
1
1
1
1
1
1
1
1
1
1
1
1
1
1
1
1
1
1
1
1
1
1
1
1
1
1
1
1
1
1
1
1
1
1
1
1
1
1
1
1
1
1
1
1
1
1
1
1
1
1
1
1
1
1
1
1
1
1
1
1
1
1
1
1
1
1
1
1
1
1
1
1
1
1
1
1
1
1
1
1
1
1
1
1
1
1
1
1
1
1
1
1
1
1
1
1
1
1
1
1
1
1
1
1
1
1
1
1
1
1
1
1
1
1
1
1
1
1
1
1
1
1
1
1
1
1
1
1
1
1
1
1
1
1
1
1
1
1
1
1
1
1
1
1
1
1
1
1
1
1
1
1
1
1
1
1
1
1
1
1
1
1
1
1
1
1
1
1
1
1
1
1
1
1
1
1
1
1
1
1
1
1
1
1
1
1
1
1
1
1
1
1
1
1
1
1
1
1
1
1
1
1
1
1
1
1
1
1
1
1
1
1
1
1
1
1
1
1
1
1
1
1
1
1
1
1
1
1
1
1
1
1
1
1
1
1
1
1
1
1
1
1
1
1
1
1
1
1
1
1
1
1
1
1
1
1
1
1
1
1
1
1
1
1
1
1
1
1
1
1
1
1
1
1
1
1
1
1
1
1
1
1
1
1
1
1
1
1
1
1
1
1
1
1
1
1
1
1
1
1
1
1
1
1
1
1
1
1
1
1
1
1
1
1
1
1
1
1
1
1
1
1
1
1
1
1
1
1
1
1
1
1
1
1
1
1
1
1
1
1
1
1
1
1
1
1
1
1
1
1
1
1
1
1
1
1
1
1
1
1
1
1
1
1
1
1
1
1
1
1
1
1
1
1
1
1
1
1
1
1
1
1
1
1
1
1
1
1
1
1
1
1
1
1
1
1
1
1
1
1
1
1
1
1
1
1
1
1
1
1
1
1
1
1
1
1
1
1
1
1
1
1
1
1
1
1
1
1
1
1
1
1
1
1
1
1
1
1
1
1
1
1
1
1
1
1
1
1
1
1
1
1
1
1
1
1
1
1
1
1
1
1
1
1
1
1
1
1
1
1
1
1
1
1
1
1
1
1
1
1
1
1
1
1
1
1
1
1
1
1
1
1
1
1
1
1
1
1
1
1
1
1
1
1
1
1
1
1
1
1
1
1
1
1
1
1
1
1
1
1
1
1
1
1
1
1
1
1
1
1
1
1
1
1
1
1
1
1
1
1
1
1
1
1
1
1
1
1
1
1
1
1
1
1
1
1
1
1
1
1
1
1
1
1
1
1
1
1
1
1
1
1
1
1
1
1
1
1
1
1
1
1
1
1
1
1
1
1
1
1
1
1
1
1
1
1
1
1
1
1
1
1
1
1
1
1
1
1
1
1
1
1
1
1
1
1
1
1
1
1
1
1
1
1
1
1
1
1
1
1
1
1
1
1
1
1
1
1
1
1
1
1
1
1
1
1
1
1
1
1
1
1
1
1
1
1
1
1
1
1
1
1
1
1
1
1
1
1
1
1
1
1
1
1
1
1
1
1
1
1
1
1
1
1
1
1
1
1
1
1
1
1
1
1
1
1
1
1
1
1
1
1
1
1
1
1
1
1
1
1
1
1
1
1
1
1
1
1
1
1
1
1
1
1
1
1
1
1
1
1
1
1
1
1
1
1
1
1
1
1
1
1
1
1
1
1
1
1
1
1
1
1
1
1
1
1
1
1
1
1
1
1
1
1
1
1
1
1
1
1
1
1
1
1
1
1
1
1
1
1
1
1
1
1
1
1
1
1
1
1
1
1
1
1
1
1
1
1
1
1
1
1
1
1
1
1
1
1
1
1
1
1
1
1
1
1
1
1
1
1
1
1
1
1
1
1
1
1
1
1
1
1
1
1
1
1
1
1
1
1
1
1
1
1
1
1
1
1
1
1
1
1
1
1
1
1
1
1
1
1
1
1
1
1
1
1
1
1
1
1
1
1
1
1
1
1
1
1
1
1
1
1
1
1
1
1
1
1
1
1
1
1
1
1
1
1
1
1
1
1
1
1
1
1
1
1
1
1
1
1
1
1
1
1
1
1
1
1
1
1
1
1
1
1
1
1
1
1
1
1
1
1
1
1
1
1
1
1
1
1
1
1
1
1
1
1
1
1
1
1
1
1
1
1
1
1
1
1
1
1
1
1
1
1
1
1
1
1
1
1
1
1
1
1
1
1
1
1
1
1
1
1
1
1
1
1
1
1
1
1
1
1
1
1
1
1
1
1
1
1
1
1
1
1
1
1
1
1
1
1
1
1
1
1
1
1
1
1
1
1
1
1
1
1
1
1
1
1
1
1
1
1
1
1
1
1
1
1
VECTORS force double
6.49299 0 1.42926
-22.55 0 6.63586
-0.703618 0 5.11265
5.35495 0 -24.0775
-6.86485 0 1.53392
1.26157 0 -3.49425
4.59303 0 -1.30436
-10.2598 0 -0.244509
3.98605 0 5.1488
-20.6707 0 -20.6352
-37.2574 0 -17.1287
-21.3995 0 9.47679
32.4744 0 7.87593
20.1791 0 -1.06903
22.1868 0 -29.2717
-39.9227 0 3.89767
12.7995 0 16.2903
26.2278 0 15.4209
-0.889448 0 12.4711
-11.188 0 -2.46363
3.74813 0 4.56709
12.5926 0 -6.61305
0.170456 0 7.10893
-2.02578 0 3.0263
-2.95015 0 6.58841
-1.26702 0 14.0309
3.52812 0 13.3279
11.0327 0 -44.321
5.11907 0 -43.2002
0.911339 0 -17.7391
-0.911339 0 -17.7391
-5.11907 0 -43.2002
-11.0327 0 -44.321
-3.52812 0 13.3279
1.26702 0 14.0309
2.95015 0 6.58841
2.02578 0 3.0263
-0.170456 0 7.10893
-12.5926 0 -6.61305
-3.74813 0 4.56709
11.188 0 -2.46363
0.889448 0 12.4711
-26.2278 0 15.4209
-12.7995 0 16.2903
39.9227 0 3.89767
-22.1868 0 -29.2717
-20.1791 0 -1.06903
-32.4744 0 7.87593
21.3995 0 9.47679
37.2574 0 -17.1287
20.6707 0 -20.6352
-3.98605 0 5.1488
10.2598 0 -0.244509
-4.59303 0 -1.30436
-1.26157 0 -3.49425
6.86485 0 1.53392
-5.35495 0 -24.0775
0.703618 0 5.11265
22.55 0 6.63586
-6.49299 0 1.42926
2.11184 0 -32.6526
5.2215 0 8.69106
-33.555 0 4.02098
29.8121 0 15.9857
-21.5675 0 5.25687
-6.25023 0 7.02754
32.8539 0 11.8117
12.0038 0 1.09045
-32.6842 0 -43.9858
6.41877 0 18.5605
9.9065 0 24.414
-13.7675 0 5.73208
22.9039 0 -22.3495
-21.4643 0 28.6713
-1.60908 0 15.7058
-49.6953 0 3.48239
31.6357 0 -3.58389
-51.501 0 -5.6432
54.2942 0 16.6871
44.8136 0 -37.8812
3.65567 0 17.2366
5.83729 0 -8.45507
-11.906 0 1.70935
-3.72825 0 1.71615
9.80674 0 -5.42739
0.332805 0 -11.053
-2.38699 0 -11.3003
-11.9128 0 45.3139
-5.72483 0 47.342
-0.304904 0 30.3903
0.304904 0 30.3903
5.72483 0 47.342
11.9128 0 45.3139
2.38699 0 -11.3003
-0.332805 0 -11.053
-9.80674 0 -5.42739
3.72825 0 1.71615
11.906 0 1.70935
-5.83729 0 -8.45507
-3.65567 0 17.2366
-44.8136 0 -37.8812
-54.2942 0 16.6871
51.501 0 -5.6432
-31.6357 0 -3.58389
49.6953 0 3.48239
1.60908 0 15.7058
21.4643 0 28.6713
-22.9039 0 -22.3495
13.7675 0 5.73208
-9.9065 0 24.414
-6.41877 0 18.5605
32.6842 0 -43.9858
-12.0038 0 1.09045
-32.8539 0 11.8117
6.25023 0 7.02754
21.5675 0 5.25687
-29.8121 0 15.9857
33.555 0 4.02098
-5.2215 0 8.69106
-2.11184 0 -32.6526
7.72782 0 6.87181
-8.83107 0 -8.38804
1.70683 0 -14.375
21.4895 0 -9.35855
-13.426 0 -3.26159
40.6077 0 -6.35966
-0.194284 0 -10.5508
-27.9325 0 -63.9488
3.50968 0 -26.7225
30.6544 0 59.4282
8.22585 0 10.487
3.46708 0 -19.417
-15.2202 0 36.4316
-4.06601 0 13.5465
-25.138 0 -6.9775
-26.9174 0 -10.5088
23.6122 0 -10.01
-77.6093 0 -0.422246
73.8288 0 -16.922
7.90842 0 41.9265
-18.1143 0 -92.8029
-0.0061417 0 13.8101
-40.1012 0 9.97114
-69.472 0 -199.194
43.9466 0 -77.9499
-7.58794 0 17.4994
-25.0074 0 28.7578
-9.41962 0 -0.39602
8.42025 0 15.2478
-7.2422 0 -26.0797
7.2422 0 -26.0797
-8.42025 0 15.2478
9.41962 0 -0.39602
25.0074 0 28.7578
7.58794 0 17.4994
-43.9466 0 -77.9499
69.472 0 -199.194
40.1012 0 9.97114
0.00614169 0 13.8101
18.1143 0 -92.8029
-7.90842 0 41.9265
-73.8288 0 -16.922
77.6093 0 -0.422246
-23.6122 0 -10.01
26.9174 0 -10.5088
25.138 0 -6.9775
4.06601 0 13.5465
15.2202 0 36.4316
-3.46708 0 -19.417
-8.22585 0 10.487
-30.6544 0 59.4282
-3.50968 0 -26.7225
27.9325 0 -63.9488
0.194284 0 -10.5508
-40.6077 0 -6.35966
13.426 0 -3.26159
-21.4895 0 -9.35855
-1.70683 0 -14.375
8.83107 0 -8.38804
-7.72782 0 6.87181
-15.7287 0 -12.3319
16.3301 0 3.26982
-12.9212 0 21.4439
8.34156 0 -7.11728
-12.567 0 -12.2693
-16.2567 0 -30.6989
-34.1363 0 -25.6021
-9.96314 0 45.7013
41.149 0 33.9435
14.6519 0 -16.8443
-22.2453 0 -9.76978
18.3581 0 32.8332
10.6132 0 -0.520162
23.1844 0 -14.2088
10.5524 0 -16.9094
35.7279 0 -13.2221
20.3585 0 -15.2065
11.5007 0 -11.6338
-8.44884 0 11.1804
22.8279 0 7.1949
-87.9866 0 -72.733
-11.511 0 3.92967
28.326 0 2.52726
-196.928 0 6.40931
255.672 0 184.29
19.6616 0 51.8562
40.9738 0 -183.954
43.1059 0 -3.31728
-8.30786 0 -0.653551
-3.15009 0 -2.53779
3.15009 0 -2.53779
8.30786 0 -0.653551
-43.1059 0 -3.31728
-40.9738 0 -183.954
-19.6616 0 51.8562
-255.672 0 184.29
196.928 0 6.40931
-28.326 0 2.52726
11.511 0 3.92967
87.9866 0 -72.733
-22.8279 0 7.1949
8.44884 0 11.1804
-11.5007 0 -11.6338
-20.3585 0 -15.2065
-35.7279 0 -13.2221
-10.5524 0 -16.9094
-23.1844 0 -14.2088
-10.6132 0 -0.520162
-18.3581 0 32.8332
22.2453 0 -9.76978
-14.6519 0 -16.8443
-41.149 0 33.9435
9.96314 0 45.7013
34.1363 0 -25.6021
16.2567 0 -30.6989
12.567 0 -12.2693
-8.34156 0 -7.11728
12.9212 0 21.4439
-16.3301 0 3.26982
15.7287 0 -12.3319
4.10614 0 21.9842
8.71771 0 -20.6986
-12.0284 0 16.7625
-34.3439 0 -2.87608
39.1952 0 -6.93988
-16.4358 0 26.5001
-0.950467 0 37.3247
15.3432 0 1.06449
17.7133 0 -32.2402
19.9294 0 9.99147
15.7635 0 31.7956
-3.54655 0 7.74075
-11.8655 0 14.816
-14.1989 0 12.9675
-13.2378 0 24.7694
-40.086 0 36.2452
-43.9878 0 18.938
42.8871 0 2.78332
7.14749 0 -2.32727
-70.8764 0 -120.189
49.8716 0 116.356
32.3716 0 37.2412
-9.66362 0 8.78246
-62.0112 0 -93.6482
-118.482 0 -276.531
-96.9466 0 166.923
-69.698 0 -70.845
-154.671 0 -136.751
44.8878 0 6.92575
4.60157 0 -14.921
-4.60157 0 -14.921
-44.8878 0 6.92575
154.671 0 -136.751
69.698 0 -70.845
96.9466 0 166.923
118.482 0 -276.531
62.0112 0 -93.6482
9.66362 0 8.78246
-32.3716 0 37.2412
-49.8716 0 116.356
70.8764 0 -120.189
-7.14749 0 -2.32727
-42.8871 0 2.78332
43.9878 0 18.938
40.086 0 36.2452
13.2378 0 24.7694
14.1989 0 12.9675
11.8655 0 14.816
3.54655 0 7.74075
-15.7635 0 31.7956
-19.9294 0 9.99147
-17.7133 0 -32.2402
-15.3432 0 1.06449
0.950467 0 37.3247
16.4358 0 26.5001
-39.1952 0 -6.93988
34.3439 0 -2.87608
12.0284 0 16.7625
-8.71771 0 -20.6986
-4.10614 0 21.9842
-2.24862 0 17.8361
-2.73045 0 -18.5128
3.82873 0 4.60443
-23.0414 0 -9.35903
21.6465 0 10.0542
-33.8088 0 2.27093
15.3426 0 -22.9375
-0.00121922 0 -36.8467
-20.7603 0 18.1839
-19.7075 0 13.0788
-10.2097 0 -5.2187
-6.87356 0 -4.94809
2.05544 0 -4.02471
0.729149 0 -1.16447
1.15504 0 0.472923
6.44813 0 -1.71313
-7.2769 0 -1.25535
-9.96836 0 -0.440262
-25.2371 0 8.80291
6.75032 0 -14.0541
42.2651 0 57.6325
52.2926 0 13.8771
-26.6662 0 -25.4475
146.097 0 -281.267
65.4925 0 86.6581
121.61 0 316.265
0.0752515 0 21.7071
10.4064 0 35.0654
106.412 0 140.716
-5.82994 0 -3.37598
5.82994 0 -3.37598
-106.412 0 140.716
-10.4064 0 35.0654
-0.0752515 0 21.7071
-121.61 0 316.265
-65.4925 0 86.6581
-146.097 0 -281.267
26.6662 0 -25.4475
-52.2926 0 13.8771
-42.2651 0 57.6325
-6.75032 0 -14.0541
25.2371 0 8.80291
9.96836 0 -0.440262
7.2769 0 -1.25535
-6.44813 0 -1.71313
-1.15504 0 0.472923
-0.729149 0 -1.16447
-2.05544 0 -4.02471
6.87356 0 -4.94809
10.2097 0 -5.2187
19.7075 0 13.0788
20.7603 0 18.1839
0.00121925 0 -36.8467
-15.3426 0 -22.9375
33.8088 0 2.27093
-21.6465 0 10.0542
23.0414 0 -9.35903
-3.82873 0 4.60443
2.73045 0 -18.5128
2.24862 0 17.8361
-21.2984 0 6.7733
12.3612 0 1.24303
-1.99022 0 3.27785
-1.32486 0 -19.2756
4.67096 0 -31.0754
18.7926 0 -35.1493
4.55948 0 -14.3983
6.95513 0 25.9549
3.7797 0 6.43616
2.37031 0 -7.78177
0.825259 0 -9.56044
3.97506 0 -9.70841
6.33979 0 -9.77137
3.24031 0 -9.49651
8.41159 0 -9.42661
7.26891 0 -9.41662
-15.9703 0 -9.35806
0.215293 0 -8.2985
13.2383 0 1.62774
16.1089 0 -28.3737
31.0357 0 3.68007
-62.2342 0 -157.396
-84.2184 0 163.471
-24.9385 0 -50.7825
0.922848 0 32.9219
25.0467 0 -48.2078
4.4996 0 7.04505
14.3572 0 29.0995
-6.08647 0 9.15362
3.78611 0 -25.2205
-3.78611 0 -25.2205
6.08647 0 9.15362
-14.3572 0 29.0995
-4.4996 0 7.04505
-25.0467 0 -48.2078
-0.922848 0 32.9219
24.9385 0 -50.7825
84.2184 0 163.471
62.2342 0 -157.396
-31.0357 0 3.68007
-16.1089 0 -28.3737
-13.2383 0 1.62774
-0.215293 0 -8.2985
15.9703 0 -9.35806
-7.26891 0 -9.41662
-8.41159 0 -9.42661
-3.24031 0 -9.49651
-6.33979 0 -9.77137
-3.97506 0 -9.70841
-0.825259 0 -9.56044
-2.37031 0 -7.78177
-3.7797 0 6.43616
-6.95513 0 25.9549
-4.55948 0 -14.3983
-18.7926 0 -35.1493
-4.67096 0 -31.0754
1.32486 0 -19.2756
1.99022 0 3.27785
-12.3612 0 1.24303
21.2984 0 6.7733
-4.95371 0 -75.2636
7.89676 0 13.9772
-7.57376 0 -7.28558
8.57405 0 -7.82618
16.3805 0 5.99765
-2.82751 0 26.397
-5.034 0 25.9993
-6.11819 0 6.26395
-4.81697 0 -3.5112
-2.26775 0 -4.87729
-4.86013 0 -5.79486
-2.56619 0 -5.9521
1.30333 0 -6.63113
-2.94362 0 -6.78599
1.17615 0 -7.19476
1.50335 0 -7.03584
-14.8517 0 -5.79204
-2.79246 0 -2.68244
6.48049 0 -195.13
-5.461 0 -1.3933
-34.4364 0 -65.2506
5.00482 0 45.644
-62.1006 0 -52.9858
69.181 0 -41.1798
20.8266 0 -31.1563
-16.4625 0 40.4394
-18.0187 0 -73.5844
-12.9127 0 5.10552
4.48668 0 -8.0091
-6.80514 0 -242.457
6.80514 0 -242.457
-4.48668 0 -8.0091
12.9127 0 5.10552
18.0187 0 -73.5844
16.4625 0 40.4394
-20.8266 0 -31.1563
-69.181 0 -41.1798
62.1006 0 -52.9858
-5.00482 0 45.644
34.4364 0 -65.2506
5.461 0 -1.3933
-6.48049 0 -195.13
2.79246 0 -2.68244
14.8517 0 -5.79204
-1.50335 0 -7.03584
-1.17615 0 -7.19476
2.94362 0 -6.78599
-1.30333 0 -6.63113
2.56619 0 -5.9521
4.86013 0 -5.79486
2.26775 0 -4.87729
4.81697 0 -3.5112
6.11819 0 6.26395
5.034 0 25.9993
2.82751 0 26.397
-16.3805 0 5.99765
-8.57405 0 -7.82618
7.57376 0 -7.28558
-7.89676 0 13.9772
4.95371 0 -75.2636
21.5004 0 52.9576
-9.15385 0 -18.1841
-1.94408 0 67.3561
-12.3101 0 -28.9807
-7.29647 0 9.17005
-2.26724 0 12.1338
-0.657647 0 3.53226
-1.14637 0 -0.248637
-0.996966 0 -1.77787
1.6208 0 -2.33545
-1.22306 0 -2.80148
1.7073 0 -2.70813
4.51445 0 -2.78195
-0.0107992 0 -2.76682
5.28934 0 -2.8004
2.57539 0 -1.85647
-15.2013 0 0.0582848
15.8058 0 1.39366
9.16362 0 124.406
9.94561 0 2.28818
11.4557 0 -103.844
10.8378 0 -30.4043
-6.04996 0 344.063
-0.307259 0 -73.9542
8.08105 0 57.1182
9.4041 0 -50.8276
22.3107 0 -68.9034
11.4896 0 -92.4476
21.1099 0 -72.5863
-6.79339 0 216.286
6.79339 0 216.286
-21.1099 0 -72.5863
-11.4896 0 -92.4476
-22.3107 0 -68.9034
-9.4041 0 -50.8276
-8.08105 0 57.1182
0.307259 0 -73.9542
6.04996 0 344.063
-10.8378 0 -30.4043
-11.4557 0 -103.844
-9.94561 0 2.28818
-9.16362 0 124.406
-15.8058 0 1.39366
15.2013 0 0.0582849
-2.57539 0 -1.85647
-5.28934 0 -2.8004
0.0107992 0 -2.76682
-4.51445 0 -2.78195
-1.7073 0 -2.70813
1.22306 0 -2.80148
-1.6208 0 -2.33545
0.996966 0 -1.77787
1.14637 0 -0.248637
0.657647 0 3.53226
2.26724 0 12.1338
7.29647 0 9.17005
12.3101 0 -28.9807
1.94408 0 67.3561
9.15385 0 -18.1841
-21.5004 0 52.9576
-4.05137 0 -6.35374
10.9403 0 -26.0584
0.571019 0 -14.1448
-1.20668 0 -20.0322
-2.30728 0 -0.40918
-0.20947 0 -0.473166
1.9089 0 -2.10024
3.01567 0 -2.18475
0.771577 0 -2.60345
3.45631 0 -3.15795
0.357949 0 -3.05421
2.10152 0 -2.81549
4.63245 0 -2.37398
-1.25034 0 -1.77083
3.94067 0 -0.627963
-1.5827 0 1.26873
-12.1115 0 5.57084
16.4315 0 -144.454
-20.1504 0 -21.4407
51.5246 0 -71.675
-0.808733 0 191.827
23.0546 0 -178.516
-0.978476 0 -63.4498
-18.6347 0 -19.4295
0.987654 0 -10.4421
-49.456 0 -69.129
-40.7172 0 90.5031
-47.9108 0 7.54065
-21.1075 0 24.7918
-6.97171 0 15.5431
6.97171 0 15.5431
21.1075 0 24.7918
47.9108 0 7.54065
40.7172 0 90.5031
49.456 0 -69.129
-0.987654 0 -10.4421
18.6347 0 -19.4295
0.978476 0 -63.4498
-23.0546 0 -178.516
0.808733 0 191.827
-51.5246 0 -71.675
20.1504 0 -21.4407
-16.4315 0 -144.454
12.1115 0 5.57084
1.5827 0 1.26873
-3.94067 0 -0.627963
1.25034 0 -1.77083
-4.63245 0 -2.37398
-2.10152 0 -2.81549
-0.357949 0 -3.05421
-3.45631 0 -3.15795
-0.771577 0 -2.60345
-3.01567 0 -2.18475
-1.9089 0 -2.10024
0.20947 0 -0.473166
2.30728 0 -0.40918
1.20668 0 -20.0322
-0.571019 0 -14.1448
-10.9403 0 -26.0584
4.05137 0 -6.35374
-4.05137 0 6.35373
10.9403 0 26.0585
0.570961 0 14.1447
-1.20641 0 20.0323
-2.30657 0 0.409085
-0.207629 0 0.472661
1.91374 0 2.11007
3.01821 0 2.16635
0.763838 0 2.59186
3.45691 0 3.12841
0.46455 0 2.80631
2.31135 0 2.29567
4.35294 0 2.61506
-1.64873 0 4.14982
3.38047 0 5.91882
-2.43811 0 7.12049
3.79001 0 11.8808
-30.0446 0 72.0369
-48.8215 0 -30.9286
-70.8867 0 -158.862
-47.4957 0 -118.93
66.5909 0 139.978
-7.24989 0 56.0429
17.5092 0 6.46588
-56.8622 0 -86.6068
17.1394 0 69.095
-68.4056 0 -47.2637
15.7241 0 71.1971
-39.3338 0 54.9294
71.5587 0 -51.1039
-71.5587 0 -51.1039
39.3338 0 54.9294
-15.7241 0 71.1971
68.4056 0 -47.2637
-17.1394 0 69.095
56.8622 0 -86.6068
-17.5092 0 6.46588
7.24989 0 56.0429
-66.5909 0 139.978
47.4957 0 -118.93
70.8867 0 -158.862
48.8215 0 -30.9286
30.0446 0 72.0369
-3.79001 0 11.8808
2.43811 0 7.12049
-3.38047 0 5.91882
1.64873 0 4.14982
-4.35294 0 2.61506
-2.31135 0 2.29567
-0.46455 0 2.80631
-3.45691 0 3.12841
-0.763838 0 2.59186
-3.01821 0 2.16635
-1.91374 0 2.11007
0.207629 0 0.472661
2.30657 0 0.409085
1.20641 0 20.0323
-0.570961 0 14.1447
-10.9403 0 26.0585
4.05137 0 6.35373
21.5004 0 -52.9576
-9.15332 0 18.1844
-1.94363 0 -67.355
-12.3103 0 28.9805
-7.29805 0 -9.17367
-2.27591 0 -12.1381
-0.653484 0 -3.384
-1.15005 0 -0.317482
-1.01326 0 1.75939
1.80069 0 2.24243
-0.683438 0 2.50475
2.45354 0 3.13789
4.53898 0 5.35419
0.872103 0 8.47299
4.74816 0 11.751
-41.25 0 4.52553
-137.775 0 -76.9204
32.349 0 38.5271
-75.7873 0 25.0209
-7.41667 0 217.39
-23.2881 0 16.4025
67.1836 0 -98.0054
47.8823 0 39.1144
-55.8732 0 -14.6705
-117.187 0 -167.937
175.152 0 -190.981
57.5773 0 -37.6787
-81.1631 0 -67.3733
76.5604 0 -68.6891
-18.1573 0 32.0459
18.1573 0 32.0459
-76.5604 0 -68.6891
81.1631 0 -67.3733
-57.5773 0 -37.6787
-175.152 0 -190.981
117.187 0 -167.937
55.8732 0 -14.6705
-47.8823 0 39.1144
-67.1836 0 -98.0054
23.2881 0 16.4025
7.41667 0 217.39
75.7873 0 25.0209
-32.349 0 38.5271
137.775 0 -76.9204
41.25 0 4.52553
-4.74816 0 11.751
-0.872103 0 8.47299
-4.53898 0 5.35419
-2.45354 0 3.13789
0.683438 0 2.50475
-1.80069 0 2.24243
1.01326 0 1.75939
1.15005 0 -0.317482
0.653484 0 -3.384
2.27591 0 -12.1381
7.29805 0 -9.17367
12.3103 0 28.9805
1.94363 0 -67.355
9.15332 0 18.1844
-21.5004 0 -52.9576
-4.95376 0 75.2636
7.89659 0 -13.9769
-7.57721 0 7.28676
8.57638 0 7.82662
16.3819 0 -6.00865
-2.81725 0 -26.4205
-4.85196 0 -24.8877
-6.41097 0 -15.3715
-4.81857 0 3.34585
-1.75759 0 5.12147
-3.36352 0 6.86961
0.169841 0 9.34367
-2.98688 0 11.1447
-304.612 0 3.5352
260.183 0 12.5199
23.2468 0 -0.605098
-17.2105 0 23.3373
115.694 0 89.9967
12.0326 0 -217.617
46.0812 0 114.628
-25.1075 0 161.972
-136.474 0 -15.8441
134.404 0 -47.4212
-69.1376 0 40.2598
55.0619 0 320.785
8.23281 0 -193.876
272.049 0 -578.354
32.4914 0 218.03
57.8903 0 -61.5799
-43.2657 0 17.0437
43.2657 0 17.0437
-57.8903 0 -61.5799
-32.4914 0 218.03
-272.049 0 -578.354
-8.23281 0 -193.876
-55.0619 0 320.785
69.1376 0 40.2598
-134.404 0 -47.4212
136.474 0 -15.8441
25.1075 0 161.972
-46.0812 0 114.628
-12.0326 0 -217.617
-115.694 0 89.9967
17.2105 0 23.3373
-23.2468 0 -0.605098
-260.183 0 12.5199
304.612 0 3.5352
2.98688 0 11.1447
-0.169841 0 9.34367
3.36352 0 6.86961
1.75759 0 5.12147
4.81857 0 3.34585
6.41097 0 -15.3715
4.85196 0 -24.8877
2.81725 0 -26.4205
-16.3819 0 -6.00865
-8.57638 0 7.82662
7.57721 0 7.28676
-7.89659 0 -13.9769
4.95376 0 75.2636
-21.298 0 -6.77278
12.3616 0 -1.24155
-1.97619 0 -3.27538
-1.33965 0 19.2795
4.64311 0 31.0098
18.8485 0 35.1021
5.1295 0 14.0313
8.2332 0 -26.7342
4.06417 0 -1.66167
3.11871 0 14.6128
-0.135884 0 16.8692
2.93221 0 12.8241
-32.8538 0 7.65838
-123.487 0 0.150409
152.173 0 3.86785
-35.7791 0 -19.1143
102.503 0 -110.923
-116.374 0 -17.308
56.7312 0 120.352
12.2573 0 -119.939
-120.82 0 -70.4816
62.7514 0 -320.091
-3.9681 0 -51.8513
18.9594 0 -33.542
-5.85778 0 116.427
-130.814 0 23.9319
-330.865 0 533.218
-127.309 0 -80.6908
205.009 0 83.6351
4.80663 0 -70.0573
-4.80662 0 -70.0573
-205.009 0 83.6351
127.309 0 -80.6908
330.865 0 533.218
130.814 0 23.9319
5.85778 0 116.427
-18.9594 0 -33.542
3.9681 0 -51.8513
-62.7514 0 -320.091
120.82 0 -70.4816
-12.2573 0 -119.939
-56.7312 0 120.352
116.374 0 -17.308
-102.503 0 -110.923
35.7791 0 -19.1143
-152.173 0 3.86785
123.487 0 0.150409
32.8538 0 7.65838
-2.93221 0 12.8241
0.135884 0 16.8692
-3.11871 0 14.6128
-4.06417 0 -1.66167
-8.2332 0 -26.7342
-5.1295 0 14.0313
-18.8485 0 35.1021
-4.64311 0 31.0098
1.33965 0 19.2795
1.97619 0 -3.27538
-12.3616 0 -1.24155
21.298 0 -6.77278
-2.24769 0 -17.8403
-2.72391 0 18.5063
3.8126 0 -4.60525
-22.8753 0 9.41314
21.7137 0 -12.7437
-34.331 0 -3.97457
14.0997 0 24.2446
2.64282 0 48.783
-69.2795 0 -7.48854
-207.162 0 8.41732
242.653 0 -4.12088
13.7065 0 -9.89152
-3.5909 0 -18.6
-76.2732 0 -18.979
48.947 0 -28.0304
-16.4924 0 -84.16
-56.4061 0 46.7637
12.0655 0 -9.69808
-68.1709 0 189.525
5.9177 0 -155.149
-129.906 0 57.5595
164.193 0 197.799
58.0197 0 154.862
-390.671 0 -101.666
399.085 0 103.672
98.6261 0 -94.1717
41.4455 0 67.6474
10.8784 0 120.169
1.70662 0 -5.97417
142.759 0 -92.472
-142.759 0 -92.472
-1.70662 0 -5.97417
-10.8784 0 120.169
-41.4455 0 67.6474
-98.6261 0 -94.1717
-399.085 0 103.672
390.671 0 -101.666
-58.0197 0 154.862
-164.193 0 197.799
129.906 0 57.5595
-5.9177 0 -155.149
68.1709 0 189.525
-12.0655 0 -9.69808