# vtk DataFile Version 3.0
SiWiRVisFile
ASCII
DATASET UNSTRUCTURED_GRID
POINTS 1600 DOUBLE
79.1614 100 76.2011
80.271 100 76.2249
81.3825 100 76.2238
82.5011 100 76.2232
83.6232 100 76.223
84.7458 100 76.2229
85.8683 100 76.2229
86.9908 100 76.2229
88.1133 100 76.2229
89.2357 100 76.2229
90.3582 100 76.2229
91.4807 100 76.2229
92.6031 100 76.2229
93.7256 100 76.2229
94.848 100 76.2229
95.9705 100 76.2229
97.093 100 76.2229
98.2154 100 76.2229
99.3379 100 76.2229
100.46 100 76.2229
101.583 100 76.2229
102.705 100 76.2229
103.828 100 76.2229
104.95 100 76.2229
106.073 100 76.2229
107.195 100 76.2229
108.318 100 76.2229
109.44 100 76.2229
110.563 100 76.2229
111.685 100 76.2229
112.807 100 76.2229
113.93 100 76.2229
115.052 100 76.2229
116.175 100 76.2229
117.297 100 76.2229
118.42 100 76.2229
119.542 100 76.2229
120.665 100 76.2229
121.787 100 76.2229
122.91 100 76.2229
124.032 100 76.2229
125.155 100 76.2229
126.277 100 76.2229
127.399 100 76.2229
128.522 100 76.2229
129.644 100 76.2229
130.767 100 76.2229
131.889 100 76.2229
133.012 100 76.2229
134.134 100 76.2229
135.257 100 76.2229
136.379 100 76.2229
137.502 100 76.2229
138.624 100 76.2229
139.747 100 76.2229
140.869 100 76.223
141.991 100 76.2232
143.11 100 76.2238
144.221 100 76.2249
145.331 100 76.2011
79.1852 100 77.3107
80.2855 100 77.3252
81.3861 100 77.3241
82.5014 100 77.3237
83.6232 100 77.3237
84.7458 100 77.3237
85.8683 100 77.3237
86.9908 100 77.3237
88.1133 100 77.3237
89.2357 100 77.3237
90.3582 100 77.3237
91.4807 100 77.3237
92.6031 100 77.3237
93.7256 100 77.3237
94.848 100 77.3237
95.9705 100 77.3237
97.093 100 77.3237
98.2154 100 77.3237
99.3379 100 77.3237
100.46 100 77.3237
101.583 100 77.3237
102.705 100 77.3237
103.828 100 77.3237
104.95 100 77.3237
106.073 100 77.3237
107.195 100 77.3237
108.318 100 77.3237
109.44 100 77.3237
110.563 100 77.3237
111.685 100 77.3237
112.807 100 77.3237
113.93 100 77.3237
115.052 100 77.3237
116.175 100 77.3237
117.297 100 77.3237
118.42 100 77.3237
119.542 100 77.3237
120.665 100 77.3237
121.787 100 77.3237
122.91 100 77.3237
124.032 100 77.3237
125.155 100 77.3237
126.277 100 77.3237
127.399 100 77.3237
128.522 100 77.3237
129.644 100 77.3237
130.767 100 77.3237
131.889 100 77.3237
133.012 100 77.3237
134.134 100 77.3237
135.257 100 77.3237
136.379 100 77.3237
137.502 100 77.3237
138.624 100 77.3237
139.747 100 77.3237
140.869 100 77.3237
141.991 100 77.3237
143.106 100 77.3241
144.207 100 77.3252
145.307 100 77.3107
79.1842 100 78.4221
80.2844 100 78.4257
81.3855 100 78.4252
82.5014 100 78.425
83.6234 100 78.4251
84.7459 100 78.4251
85.8683 100 78.4251
86.9908 100 78.4251
88.1133 100 78.4251
89.2357 100 78.4251
90.3582 100 78.4251
91.4807 100 78.4251
92.6031 100 78.4251
93.7256 100 78.4251
94.848 100 78.4251
95.9705 100 78.4251
97.093 100 78.4251
98.2154 100 78.4251
99.3379 100 78.4251
100.46 100 78.4251
101.583 100 78.4251
102.705 100 78.4251
103.828 100 78.4251
104.95 100 78.4251
106.073 100 78.4251
107.195 100 78.4251
108.318 100 78.4251
109.44 100 78.4251
110.563 100 78.4251
111.685 100 78.4251
112.807 100 78.4251
113.93 100 78.4251
115.052 100 78.4251
116.175 100 78.4251
117.297 100 78.4251
118.42 100 78.4251
119.542 100 78.4251
120.665 100 78.4251
121.787 100 78.4251
122.91 100 78.4251
124.032 100 78.4251
125.155 100 78.4251
126.277 100 78.4251
127.399 100 78.4251
128.522 100 78.4251
129.644 100 78.4251
130.767 100 78.4251
131.889 100 78.4251
133.012 100 78.4251
134.134 100 78.4251
135.257 100 78.4251
136.379 100 78.4251
137.502 100 78.4251
138.624 100 78.4251
139.747 100 78.4251
140.869 100 78.4251
141.991 100 78.425
143.107 100 78.4252
144.208 100 78.4257
145.308 100 78.4221
79.1835 100 79.5408
80.284 100 79.541
81.3854 100 79.5411
82.5015 100 79.5412
83.6235 100 79.5412
84.7459 100 79.5412
85.8683 100 79.5412
86.9908 100 79.5412
88.1133 100 79.5412
89.2357 100 79.5412
90.3582 100 79.5412
91.4807 100 79.5412
92.6031 100 79.5412
93.7256 100 79.5412
94.848 100 79.5412
95.9705 100 79.5412
97.093 100 79.5412
98.2154 100 79.5412
99.3379 100 79.5412
100.46 100 79.5412
101.583 100 79.5412
102.705 100 79.5412
103.828 100 79.5412
104.95 100 79.5412
106.073 100 79.5412
107.195 100 79.5412
108.318 100 79.5412
109.44 100 79.5412
110.563 100 79.5412
111.685 100 79.5412
112.807 100 79.5412
113.93 100 79.5412
115.052 100 79.5412
116.175 100 79.5412
117.297 100 79.5412
118.42 100 79.5412
119.542 100 79.5412
120.665 100 79.5412
121.787 100 79.5412
122.91 100 79.5412
124.032 100 79.5412
125.155 100 79.5412
126.277 100 79.5412
127.399 100 79.5412
128.522 100 79.5412
129.644 100 79.5412
130.767 100 79.5412
131.889 100 79.5412
133.012 100 79.5412
134.134 100 79.5412
135.257 100 79.5412
136.379 100 79.5412
137.502 100 79.5412
138.624 100 79.5412
139.747 100 79.5412
140.869 100 79.5412
141.991 100 79.5412
143.107 100 79.5411
144.208 100 79.541
145.309 100 79.5408
79.1834 100 80.6629
80.284 100 80.6629
81.3854 100 80.6631
82.5016 100 80.6631
83.6235 100 80.6631
84.7459 100 80.6631
85.8683 100 80.6631
86.9908 100 80.6631
88.1133 100 80.6631
89.2357 100 80.6631
90.3582 100 80.6631
91.4807 100 80.6631
92.6031 100 80.6631
93.7256 100 80.6631
94.848 100 80.6631
95.9705 100 80.6631
97.093 100 80.6631
98.2154 100 80.6631
99.3379 100 80.6631
100.46 100 80.6631
101.583 100 80.6631
102.705 100 80.6631
103.828 100 80.6631
104.95 100 80.6631
106.073 100 80.6631
107.195 100 80.6631
108.318 100 80.6631
109.44 100 80.6631
110.563 100 80.6631
111.685 100 80.6631
112.807 100 80.6631
113.93 100 80.6631
115.052 100 80.6631
116.175 100 80.6631
117.297 100 80.6631
118.42 100 80.6631
119.542 100 80.6631
120.665 100 80.6631
121.787 100 80.6631
122.91 100 80.6631
124.032 100 80.6631
125.155 100 80.6631
126.277 100 80.6631
127.399 100 80.6631
128.522 100 80.6631
129.644 100 80.6631
130.767 100 80.6631
131.889 100 80.6631
133.012 100 80.6631
134.134 100 80.6631
135.257 100 80.6631
136.379 100 80.6631
137.502 100 80.6631
138.624 100 80.6631
139.747 100 80.6631
140.869 100 80.6631
141.991 100 80.6631
143.107 100 80.6631
144.208 100 80.6629
145.309 100 80.6629
79.1833 100 81.7855
80.284 100 81.7855
81.3855 100 81.7855
82.5016 100 81.7855
83.6235 100 81.7855
84.7459 100 81.7855
85.8683 100 81.7855
86.9908 100 81.7855
88.1133 100 81.7855
89.2357 100 81.7855
90.3582 100 81.7855
91.4807 100 81.7855
92.6031 100 81.7855
93.7256 100 81.7855
94.848 100 81.7855
95.9705 100 81.7855
97.093 100 81.7855
98.2154 100 81.7855
99.3379 100 81.7855
100.46 100 81.7855
101.583 100 81.7855
102.705 100 81.7855
103.828 100 81.7855
104.95 100 81.7855
106.073 100 81.7855
107.195 100 81.7855
108.318 100 81.7855
109.44 100 81.7855
110.563 100 81.7855
111.685 100 81.7855
112.807 100 81.7855
113.93 100 81.7855
115.052 100 81.7855
116.175 100 81.7855
117.297 100 81.7855
118.42 100 81.7855
119.542 100 81.7855
120.665 100 81.7855
121.787 100 81.7855
122.91 100 81.7855
124.032 100 81.7855
125.155 100 81.7855
126.277 100 81.7855
127.399 100 81.7855
128.522 100 81.7855
129.644 100 81.7855
130.767 100 81.7855
131.889 100 81.7855
133.012 100 81.7855
134.134 100 81.7855
135.257 100 81.7855
136.379 100 81.7855
137.502 100 81.7855
138.624 100 81.7855
139.747 100 81.7855
140.869 100 81.7855
141.991 100 81.7855
143.107 100 81.7855
144.208 100 81.7855
145.309 100 81.7855
79.1833 100 82.908
80.2841 100 82.908
81.3855 100 82.908
82.5016 100 82.908
83.6235 100 82.908
84.7459 100 82.908
85.8683 100 82.908
86.9908 100 82.908
88.1133 100 82.908
89.2357 100 82.908
90.3582 100 82.908
91.4807 100 82.908
92.6031 100 82.908
93.7256 100 82.908
94.848 100 82.908
95.9705 100 82.908
97.093 100 82.908
98.2154 100 82.908
99.3379 100 82.908
100.46 100 82.908
101.583 100 82.908
102.705 100 82.908
103.828 100 82.908
104.95 100 82.908
106.073 100 82.908
107.195 100 82.908
108.318 100 82.908
109.44 100 82.908
110.563 100 82.908
111.685 100 82.908
112.807 100 82.908
113.93 100 82.908
115.052 100 82.908
116.175 100 82.908
117.297 100 82.908
118.42 100 82.908
119.542 100 82.908
120.665 100 82.908
121.787 100 82.908
122.91 100 82.908
124.032 100 82.908
125.155 100 82.908
126.277 100 82.908
127.399 100 82.908
128.522 100 82.908
129.644 100 82.908
130.767 100 82.908
131.889 100 82.908
133.012 100 82.908
134.134 100 82.908
135.257 100 82.908
136.379 100 82.908
137.502 100 82.908
138.624 100 82.908
139.747 100 82.908
140.869 100 82.908
141.991 100 82.908
143.107 100 82.908
144.208 100 82.908
145.309 100 82.908
79.1833 100 84.0305
80.2841 100 84.0305
81.3855 100 84.0305
82.5016 100 84.0305
83.6235 100 84.0305
84.7459 100 84.0305
85.8683 100 84.0305
86.9908 100 84.0305
88.1133 100 84.0305
89.2357 100 84.0305
90.3582 100 84.0305
91.4807 100 84.0305
92.6031 100 84.0305
93.7256 100 84.0305
94.848 100 84.0305
95.9705 100 84.0305
97.093 100 84.0305
98.2154 100 84.0305
99.3379 100 84.0305
100.46 100 84.0305
101.583 100 84.0305
102.705 100 84.0305
103.828 100 84.0305
104.95 100 84.0305
106.073 100 84.0305
107.195 100 84.0305
108.318 100 84.0305
109.44 100 84.0305
110.563 100 84.0305
111.685 100 84.0305
112.807 100 84.0305
113.93 100 84.0305
115.052 100 84.0305
116.175 100 84.0305
117.297 100 84.0305
118.42 100 84.0305
119.542 100 84.0305
120.665 100 84.0305
121.787 100 84.0305
122.91 100 84.0305
124.032 100 84.0305
125.155 100 84.0305
126.277 100 84.0305
127.399 100 84.0305
128.522 100 84.0305
129.644 100 84.0305
130.767 100 84.0305
131.889 100 84.0305
133.012 100 84.0305
134.134 100 84.0305
135.257 100 84.0305
136.379 100 84.0305
137.502 100 84.0305
138.624 100 84.0305
139.747 100 84.0305
140.869 100 84.0305
141.991 100 84.0305
143.107 100 84.0305
144.208 100 84.0305
145.309 100 84.0305
79.1833 100 85.1529
80.2841 100 85.1529
81.3855 100 85.1529
82.5016 100 85.1529
83.6235 100 85.1529
84.7459 100 85.1529
85.8683 100 85.1529
86.9908 100 85.1529
88.1133 100 85.1529
89.2357 100 85.1529
90.3582 100 85.1529
91.4807 100 85.1529
92.6031 100 85.1529
93.7256 100 85.1529
94.848 100 85.1529
95.9705 100 85.1529
97.093 100 85.1529
98.2154 100 85.1529
99.3379 100 85.1529
100.46 100 85.1529
101.583 100 85.1529
102.705 100 85.1529
[...]
POINT_DATA 1600
SCALARS mass double
LOOKUP_TABLE default
1
1
1
1
1
1
1
1
1
1
1
1
1
1
1
1
1
1
1
1
1
1
1
1
1
1
1
1
1
1
1
1
1
1
1
1
1
1
1
1
1
1
1
1
1
1
1
1
1
1
1
1
1
1
1
1
1
1
1
1
1
1
1
1
1
1
1
1
1
1
1
1
1
1
1
1
1
1
1
1
1
1
1
1
1
1
1
1
1
1
1
1
1
1
1
1
1
1
1
1
1
1
1
1
1
1
1
1
1
1
1
1
1
1
1
1
1
1
1
1
1
1
1
1
1
1
1
1
1
1
1
1
1
1
1
1
1
1
1
1
1
1
1
1
1
1
1
1
1
1
1
1
1
1
1
1
1
1
1
1
1
1
1
1
1
1
1
1
1
1
1
1
1
1
1
1
1
1
1
1
1
1
1
1
1
1
1
1
1
1
1
1
1
1
1
1
1
1
1
1
1
1
1
1
1
1
1
1
1
1
1
1
1
1
1
1
1
1
1
1
1
1
1
1
1
1
1
1
1
1
1
1
1
1
1
1
1
1
1
1
1
1
1
1
1
1
1
1
1
1
1
1
1
1
1
1
1
1
1
1
1
1
1
1
1
1
1
1
1
1
1
1
1
1
1
1
1
1
1
1
1
1
1
1
1
1
1
1
1
1
1
1
1
1
1
1
1
1
1
1
1
1
1
1
1
1
1
1
1
1
1
1
1
1
1
1
1
1
1
1
1
1
1
1
1
1
1
1
1
1
1
1
1
1
1
1
1
1
1
1
1
1
1
1
1
1
1
1
1
1
1
1
1
1
1
1
1
1
1
1
1
1
1
1
1
1
1
1
1
1
1
1
1
1
1
1
1
1
1
1
1
1
1
1
1
1
1
1
1
1
1
1
1
1
1
1
1
1
1
1
1
1
1
1
1
1
1
1
1
1
1
1
1
1
1
1
1
1
1
1
1
1
1
1
1
1
1
1
1
1
1
1
1
1
1
1
1
1
1
1
1
1
1
1
1
1
1
1
1
1
1
1
1
1
1
1
1
1
1
1
1
1
1
1
1
1
1
1
1
1
1
1
1
1
1
1
1
1
1
1
1
1
1
1
1
1
1
1
1
1
1
1
1
1
1
1
1
1
1
1
1
1
1
1
1
1
1
1
1
1
1
1
1
1
1
1
1
1
1
1
1
1
1
1
1
1
1
1
1
1
1
1
1
1
1
1
1
1
1
1
1
1
1
1
1
1
1
1
1
1
1
1
1
1
1
1
1
1
1
1
1
1
1
1
1
1
1
1
1
1
1
1
1
1
1
1
1
1
1
1
1
1
1
1
1
1
1
1
1
1
1
1
1
1
1
1
1
1
1
1
1
1
1
1
1
1
1
1
1
1
1
1
1
1
1
1
1
1
1
1
1
1
1
1
1
1
1
1
1
1
1
1
1
1
1
1
1
1
1
1
1
1
1
1
1
1
1
1
1
1
1
1
1
1
1
1
1
1
1
1
1
1
1
1
1
1
1
1
1
1
1
1
1
1
1
1
1
1
1
1
1
1
1
1
1
1
1
1
1
1
1
1
1
1
1
1
1
1
1
1
1
1
1
1
1
1
1
1
1
1
1
1
1
1
1
1
1
1
1
1
1
1
1
1
1
1
1
1
1
1
1
1
1
1
1
1
1
1
1
1
1
1
1
1
1
1
1
1
1
1
1
1
1
1
1
1
1
1
1
1
1
1
1
1
1
1
1
1
1
1
1
1
1
1
1
1
1
1
1
1
1
1
1
1
1
1
1
1
1
1
1
1
1
1
1
1
1
1
1
1
1
1
1
1
1
1
1
1
1
1
1
1
1
1
1
1
1
1
1
1
1
1
1
1
1
1
1
1
1
1
1
1
1
1
1
1
1
1
1
1
1
1
1
1
1
1
1
1
1
1
1
1
1
1
1
1
1
1
1
1
1
1
1
1
1
1
1
1
1
1
1
1
1
1
1
1
1
1
1
1
1
1
1
1
1
1
1
1
1
1
1
1
1
1
1
1
1
1
1
1
1
1
1
1
1
1
1
1
1
1
1
1
1
1
1
1
1
1
1
1
1
1
1
1
1
1
1
1
1
1
1
1
1
1
1
1
1
1
1
1
1
1
1
1
1
1
1
1
1
1
1
1
1
1
1
1
1
1
1
1
1
1
1
1
1
1
1
1
1
1
1
1
1
1
1
1
1
1
1
1
1
1
1
1
1
1
1
1
1
1
1
1
1
1
1
1
1
1
1
1
1
1
1
1
1
1
1
1
1
1
1
1
1
1
1
1
1
1
1
1
1
1
1
1
1
1
1
1
1
1
1
1
1
1
1
1
1
1
1
1
1
1
1
1
1
1
1
1
1
1
1
1
1
1
1
1
1
1
1
1
1
1
1
1
1
1
1
1
1
1
1
1
1
1
1
1
1
1
1
1
1
1
1
1
1
1
1
1
1
1
1
1
1
1
1
1
1
1
1
1
1
1
1
1
1
1
1
1
1
1
1
1
1
1
1
1
1
1
1
1
1
1
1
1
1
1
1
1
1
1
1
1
1
1
1
1
1
1
1
1
1
1
1
1
1
1
1
1
1
1
1
1
1
1
1
1
1
1
1
1
1
1
1
1
1
1
1
1
1
1
1
1
1
1
1
1
1
1
1
1
1
1
1
1
1
1
1
1
1
1
1
1
1
1
1
1
1
1
1
1
1
1
1
1
1
1
1
1
1
1
1
1
1
1
1
1
1
1
1
1
1
1
1
1
1
1
1
1
1
1
1
1
1
1
1
1
1
1
1
1
1
1
1
1
1
1
1
1
1
1
1
1
1
1
1
1
1
1
1
1
1
1
1
1
1
1
1
1
1
1
1
1
1
1
1
1
1
1
1
1
1
1
1
1
1
1
1
1
1
1
1
1
1
1
1
1
1
1
1
1
1
1
1
1
1
1
1
1
1
1
1
1
1
1
1
1
1
1
1
1
1
1
1
1
1
1
1
1
1
1
1
1
1
1
1
1
1
1
1
1
1
1
1
1
1
1
1
1
1
1
1
1
1
1
1
1
1
1
1
1
1
1
1
1
1
1
1
1
1
1
1
1
1
1
1
1
1
1
1
1
1
1
1
1
1
1
1
1
1
1
1
1
1
1
1
1
1
1
1
1
1
1
1
1
1
1
1
1
1
1
1
1
1
1
1
1
1
1
1
1
1
1
1
1
1
1
1
1
1
1
1
1
1
1
1
1
1
1
1
1
1
1
1
1
1
1
1
1
1
1
1
1
1
1
1
1
1
1
1
1
1
1
1
1
1
1
1
1
1
1
1
1
1
1
1
1
1
1
1
1
1
1
1
1
1
1
1
1
1
1
1
1
1
1
1
1
1
1
1
1
1
1
1
1
1
1
1
1
1
1
1
1
1
1
1
1
1
1
1
1
1
1
1
1
1
1
1
1
1
1
1
1
1
1
1
1
1
1
1
1
1
1
1
1
1
1
1
1
1
1
1
1
1
1
1
1
1
1
1
1
1
1
1
1
1
1
1
1
1
1
1
1
1
1
1
1
1
1
1
1
1
1
1
1
1
1
1
1
1
1
1
1
1
1
1
1
1
1
1
1
VECTORS force double
-0.533117 0 -0.533117
0.69805 0 0.0129486
2.15601 0 -0.340552
0.931192 0 -0.475197
-0.042164 0 -0.585875
-0.197541 0 -0.553625
-0.0166818 0 -0.620596
-0.000159165 0 -0.620303
1.71038e-06 0 -0.620303
3.33912e-08 0 -0.620303
-2.12826e-11 0 -0.620303
-6.47093e-13 0 -0.620303
-5.55112e-17 0 -0.620303
-1.82077e-14 0 -0.620303
3.9668e-12 0 -0.620303
-7.92644e-12 0 -0.620303
7.9268e-12 0 -0.620303
-3.96666e-12 0 -0.620303
1.81521e-14 0 -0.620303
-5.55112e-17 0 -0.620303
-5.55112e-17 0 -0.620303
-5.55112e-17 0 -0.620303
-5.55112e-17 0 -0.620303
-5.55112e-17 0 -0.620303
-1.80411e-14 0 -0.620303
3.9668e-12 0 -0.620303
-7.92627e-12 0 -0.620303
7.94495e-12 0 -0.620303
-7.94448e-12 0 -0.620303
7.9268e-12 0 -0.620303
-3.96666e-12 0 -0.620303
1.81521e-14 0 -0.620303
-5.55112e-17 0 -0.620303
-1.82077e-14 0 -0.620303
3.9668e-12 0 -0.620303
-7.92644e-12 0 -0.620303
7.94495e-12 0 -0.620303
-7.94448e-12 0 -0.620303
7.9268e-12 0 -0.620303
-3.96666e-12 0 -0.620303
1.81521e-14 0 -0.620303
-5.55112e-17 0 -0.620303
-1.82077e-14 0 -0.620303
3.9668e-12 0 -0.620303
-7.92644e-12 0 -0.620303
7.94495e-12 0 -0.620303
-7.94448e-12 0 -0.620303
7.94495e-12 0 -0.620303
-7.94448e-12 0 -0.620303
1.74863e-10 0 -0.620303
-3.35542e-08 0 -0.620303
-1.71056e-06 0 -0.620303
0.000159166 0 -0.620303
0.0166818 0 -0.620596
0.197541 0 -0.553625
0.042164 0 -0.585875
-0.931192 0 -0.475197
-2.15601 0 -0.340552
-0.69805 0 0.0129486
0.533117 0 -0.533117
0.0129486 0 0.69805
1.38094 0 1.38094
5.36703 0 1.26033
1.70898 0 1.09568
-0.161328 0 1.13322
-0.20438 0 1.00471
-0.0124134 0 1.06411
-4.81626e-05 0 1.06366
1.91371e-06 0 1.06366
2.02953e-08 0 1.06366
-1.31429e-10 0 1.06366
-4.44089e-16 0 1.06366
-7.77156e-16 0 1.06366
-1.90958e-14 0 1.06366
3.86402e-12 0 1.06366
-7.72082e-12 0 1.06366
7.72049e-12 0 1.06366
-3.86435e-12 0 1.06366
1.82077e-14 0 1.06366
-7.77156e-16 0 1.06366
-4.44089e-16 0 1.06366
-7.77156e-16 0 1.06366
-4.44089e-16 0 1.06366
-4.44089e-16 0 1.06366
-1.80411e-14 0 1.06366
3.86402e-12 0 1.06366
-7.72127e-12 0 1.06366
7.73914e-12 0 1.06366
-7.73903e-12 0 1.06366
7.72049e-12 0 1.06366
-3.86435e-12 0 1.06366
1.82077e-14 0 1.06366
-7.77156e-16 0 1.06366
-1.90958e-14 0 1.06366
3.86402e-12 0 1.06366
-7.72082e-12 0 1.06366
7.73914e-12 0 1.06366
-7.73903e-12 0 1.06366
7.72049e-12 0 1.06366
-3.86435e-12 0 1.06366
1.82077e-14 0 1.06366
-7.77156e-16 0 1.06366
-1.90958e-14 0 1.06366
3.86402e-12 0 1.06366
-7.72082e-12 0 1.06366
7.73914e-12 0 1.06366
-7.73903e-12 0 1.06366
7.73914e-12 0 1.06366
-7.73903e-12 0 1.06366
1.36767e-10 0 1.06366
-2.05719e-08 0 1.06366
-1.91344e-06 0 1.06366
4.81624e-05 0 1.06366
0.0124134 0 1.06411
0.20438 0 1.00471
0.161328 0 1.13322
-1.70898 0 1.09568
-5.36703 0 1.26033
-1.38094 0 1.38094
-0.0129486 0 0.69805
-0.340552 0 2.15601
1.26033 0 5.36703
4.91277 0 4.91277
1.3551 0 4.80118
-0.0603225 0 4.69872
-0.000104817 0 4.78253
0.00148975 0 4.78816
5.77734e-05 0 4.78755
1.17227e-06 0 4.78755
1.2873e-08 0 4.78755
-9.33366e-11 0 4.78755
3.34537e-16 0 4.78755
3.33067e-16 0 4.78755
-1.78176e-14 0 4.78755
3.8694e-12 0 4.78755
-7.73215e-12 0 4.78755
7.7317e-12 0 4.78755
-3.86946e-12 0 4.78755
1.89863e-14 0 4.78755
3.33067e-16 0 4.78755
3.34537e-16 0 4.78755
3.33067e-16 0 4.78755
3.34537e-16 0 4.78755
3.34537e-16 0 4.78755
-1.80411e-14 0 4.78755
3.8694e-12 0 4.78755
-7.7322e-12 0 4.78755
7.75074e-12 0 4.78755
-7.75086e-12 0 4.78755
7.73258e-12 0 4.78755
-3.86946e-12 0 4.78755
1.89863e-14 0 4.78755
3.33067e-16 0 4.78755
-1.78176e-14 0 4.78755
3.8694e-12 0 4.78755
-7.73215e-12 0 4.78755
7.74985e-12 0 4.78755
-7.75086e-12 0 4.78755
7.73258e-12 0 4.78755
-3.86946e-12 0 4.78755
1.89863e-14 0 4.78755
3.33067e-16 0 4.78755
-1.78176e-14 0 4.78755
3.8694e-12 0 4.78755
-7.73215e-12 0 4.78755
7.74985e-12 0 4.78755
-7.75086e-12 0 4.78755
7.75074e-12 0 4.78755
-7.75086e-12 0 4.78755
1.01638e-10 0 4.78755
-1.29996e-08 0 4.78755
-1.172e-06 0 4.78755
-5.77738e-05 0 4.78755
-0.00148975 0 4.78816
0.000104817 0 4.78253
0.0603225 0 4.69872
-1.3551 0 4.80118
-4.91277 0 4.91277
-1.26033 0 5.36703
0.340552 0 2.15601
-0.475197 0 0.931192
1.09568 0 1.70898
4.80118 0 1.3551
1.29652 0 1.29652
0.112733 0 1.29497
0.0149594 0 1.30287
0.00114855 0 1.30203
4.80631e-05 0 1.30199
1.17901e-06 0 1.302
1.39943e-08 0 1.302
-9.70414e-11 0 1.302
4.44089e-16 0 1.302
1.11022e-16 0 1.302
-1.82077e-14 0 1.302
3.87645e-12 0 1.302
-7.74658e-12 0 1.302
7.74714e-12 0 1.302
-3.8759e-12 0 1.302
1.90958e-14 0 1.302
1.11022e-16 0 1.302
4.44089e-16 0 1.302
1.11022e-16 0 1.302
4.44089e-16 0 1.302
4.44089e-16 0 1.302
-1.80411e-14 0 1.302
3.87645e-12 0 1.302
-7.74658e-12 0 1.302
7.7649e-12 0 1.302
-7.76523e-12 0 1.302
7.74625e-12 0 1.302
-3.8759e-12 0 1.302
1.90958e-14 0 1.302
1.11022e-16 0 1.302
-1.82077e-14 0 1.302
3.87645e-12 0 1.302
-7.74658e-12 0 1.302
7.76579e-12 0 1.302
-7.76523e-12 0 1.302
7.74625e-12 0 1.302
-3.8759e-12 0 1.302
1.90958e-14 0 1.302
1.11022e-16 0 1.302
-1.82077e-14 0 1.302
3.87645e-12 0 1.302
-7.74658e-12 0 1.302
7.76579e-12 0 1.302
-7.76523e-12 0 1.302
7.7649e-12 0 1.302
-7.76523e-12 0 1.302
1.05543e-10 0 1.302
-1.41623e-08 0 1.302
-1.17866e-06 0 1.302
-4.80636e-05 0 1.30199
-0.00114855 0 1.30203
-0.0149594 0 1.30287
-0.112733 0 1.29497
-1.29652 0 1.29652
-4.80118 0 1.3551
-1.09568 0 1.70898
0.475197 0 0.931192
-0.585875 0 -0.042164
1.13322 0 -0.161328
4.69872 0 -0.0603225
1.29497 0 0.112733
0.120302 0 0.120302
0.014944 0 0.119757
0.00113403 0 0.119721
4.8063e-05 0 0.119721
1.17555e-06 0 0.119721
1.38872e-08 0 0.119721
-9.64518e-11 0 0.119721
-1.09552e-16 0 0.119721
-1.11022e-16 0 0.119721
-1.82617e-14 0 0.119721
3.87872e-12 0 0.119721
-7.75213e-12 0 0.119721
7.75257e-12 0 0.119721
-3.87879e-12 0 0.119721
1.85422e-14 0 0.119721
-1.11022e-16 0 0.119721
-1.09552e-16 0 0.119721
-1.11022e-16 0 0.119721
-1.09552e-16 0 0.119721
-1.09552e-16 0 0.119721
-1.80411e-14 0 0.119721
3.87872e-12 0 0.119721
-7.75174e-12 0 0.119721
7.77072e-12 0 0.119721
-7.7704e-12 0 0.119721
7.75257e-12 0 0.119721
-3.87879e-12 0 0.119721
1.85422e-14 0 0.119721
-1.11022e-16 0 0.119721
-1.82617e-14 0 0.119721
3.87872e-12 0 0.119721
-7.75213e-12 0 0.119721
7.77072e-12 0 0.119721
-7.7704e-12 0 0.119721
7.75257e-12 0 0.119721
-3.87879e-12 0 0.119721
1.85422e-14 0 0.119721
-1.11022e-16 0 0.119721
-1.82617e-14 0 0.119721
3.87872e-12 0 0.119721
-7.75213e-12 0 0.119721
7.77072e-12 0 0.119721
-7.7704e-12 0 0.119721
7.77072e-12 0 0.119721
-7.7704e-12 0 0.119721
1.04869e-10 0 0.119721
-1.40328e-08 0 0.119721
-1.17525e-06 0 0.119721
-4.80635e-05 0 0.119721
-0.00113403 0 0.119721
-0.014944 0 0.119757
-0.120302 0 0.120302
-1.29497 0 0.112733
-4.69872 0 -0.0603225
-1.13322 0 -0.161328
0.585875 0 -0.042164
-0.553625 0 -0.197541
1.00471 0 -0.20438
4.78253 0 -0.000104817
1.30287 0 0.0149594
0.119757 0 0.014944
0.0148763 0 0.0148763
0.00113326 0 0.014879
4.8098e-05 0 0.0148791
1.1767e-06 0 0.0148791
1.39148e-08 0 0.0148791
-9.65773e-11 0 0.0148791
0 0 0.0148791
-3.33067e-16 0 0.0148791
-1.86517e-14 0 0.0148791
3.87956e-12 0 0.0148791
-7.75369e-12 0 0.0148791
7.75291e-12 0 0.0148791
-3.8799e-12 0 0.0148791
1.77636e-14 0 0.0148791
-3.33067e-16 0 0.0148791
0 0 0.0148791
-3.33067e-16 0 0.0148791
0 0 0.0148791
0 0 0.0148791
-1.80411e-14 0 0.0148791
3.87956e-12 0 0.0148791
-7.75369e-12 0 0.0148791
7.77156e-12 0 0.0148791
-7.77234e-12 0 0.0148791
7.75291e-12 0 0.0148791
-3.8799e-12 0 0.0148791
1.77636e-14 0 0.0148791
-3.33067e-16 0 0.0148791
-1.86517e-14 0 0.0148791
3.87956e-12 0 0.0148791
-7.75369e-12 0 0.0148791
7.77156e-12 0 0.0148791
-7.77234e-12 0 0.0148791
7.75291e-12 0 0.0148791
-3.8799e-12 0 0.0148791
1.77636e-14 0 0.0148791
-3.33067e-16 0 0.0148791
-1.86517e-14 0 0.0148791
3.87956e-12 0 0.0148791
-7.75369e-12 0 0.0148791
7.77156e-12 0 0.0148791
-7.77234e-12 0 0.0148791
7.77156e-12 0 0.0148791
-7.77234e-12 0 0.0148791
1.05193e-10 0 0.0148791
-1.41053e-08 0 0.0148791
-1.17632e-06 0 0.0148791
-4.80984e-05 0 0.0148791
-0.00113326 0 0.014879
-0.0148763 0 0.0148763
-0.119757 0 0.014944
-1.30287 0 0.0149594
-4.78253 0 -0.000104817
-1.00471 0 -0.20438
0.553625 0 -0.197541
-0.620596 0 -0.0166818
1.06411 0 -0.0124134
4.78816 0 0.00148975
1.30203 0 0.00114855
0.119721 0 0.00113403
0.014879 0 0.00113326
0.00113343 0 0.00113343
4.80997e-05 0 0.00113342
1.17668e-06 0 0.00113342
1.3906e-08 0 0.00113342
-9.65416e-11 0 0.00113342
-1.09552e-16 0 0.00113342
-1.11022e-16 0 0.00113342
-1.82617e-14 0 0.00113342
3.8805e-12 0 0.00113342
-7.75391e-12 0 0.00113342
7.75434e-12 0 0.00113342
-3.88056e-12 0 0.00113342
1.85422e-14 0 0.00113342
-1.11022e-16 0 0.00113342
-1.09552e-16 0 0.00113342
-1.11022e-16 0 0.00113342
-1.09552e-16 0 0.00113342
-1.09552e-16 0 0.00113342
-1.80411e-14 0 0.00113342
3.8805e-12 0 0.00113342
-7.75352e-12 0 0.00113342
7.7725e-12 0 0.00113342
-7.77217e-12 0 0.00113342
7.75434e-12 0 0.00113342
-3.88056e-12 0 0.00113342
1.85422e-14 0 0.00113342
-1.11022e-16 0 0.00113342
-1.82617e-14 0 0.00113342
3.8805e-12 0 0.00113342
-7.75391e-12 0 0.00113342
7.7725e-12 0 0.00113342
-7.77217e-12 0 0.00113342
7.75434e-12 0 0.00113342
-3.88056e-12 0 0.00113342
1.85422e-14 0 0.00113342
-1.11022e-16 0 0.00113342
-1.82617e-14 0 0.00113342
3.8805e-12 0 0.00113342
-7.75391e-12 0 0.00113342
7.7725e-12 0 0.00113342
-7.77217e-12 0 0.00113342
7.7725e-12 0 0.00113342
-7.77217e-12 0 0.00113342
1.05194e-10 0 0.00113342
-1.41036e-08 0 0.00113342
-1.17628e-06 0 0.00113342
-4.81001e-05 0 0.00113342
-0.00113343 0 0.00113343
-0.014879 0 0.00113326
-0.119721 0 0.00113403
-1.30203 0 0.00114855
-4.78816 0 0.00148975
-1.06411 0 -0.0124134
0.620596 0 -0.0166818
-0.620303 0 -0.000159165
1.06366 0 -4.81626e-05
4.78755 0 5.77734e-05
1.30199 0 4.80631e-05
0.119721 0 4.8063e-05
0.0148791 0 4.8098e-05
0.00113342 0 4.80997e-05
4.80995e-05 0 4.80995e-05
1.17667e-06 0 4.80996e-05
1.39062e-08 0 4.80996e-05
-9.65418e-11 0 4.80996e-05
0 0 4.80996e-05
-3.33067e-16 0 4.80996e-05
-1.86517e-14 0 4.80996e-05
3.88178e-12 0 4.80996e-05
-7.75546e-12 0 4.80996e-05
7.75513e-12 0 4.80996e-05
-3.88167e-12 0 4.80996e-05
1.86517e-14 0 4.80996e-05
-3.33067e-16 0 4.80996e-05
0 0 4.80996e-05
-3.33067e-16 0 4.80996e-05
0 0 4.80996e-05
0 0 4.80996e-05
-1.80411e-14 0 4.80996e-05
3.88178e-12 0 4.80996e-05
-7.75502e-12 0 4.80996e-05
7.77378e-12 0 4.80996e-05
-7.77367e-12 0 4.80996e-05
7.75513e-12 0 4.80996e-05
-3.88167e-12 0 4.80996e-05
1.86517e-14 0 4.80996e-05
-3.33067e-16 0 4.80996e-05
-1.86517e-14 0 4.80996e-05
3.88178e-12 0 4.80996e-05
-7.75546e-12 0 4.80996e-05
7.77378e-12 0 4.80996e-05
-7.77367e-12 0 4.80996e-05
7.75513e-12 0 4.80996e-05
-3.88167e-12 0 4.80996e-05
1.86517e-14 0 4.80996e-05
-3.33067e-16 0 4.80996e-05
-1.86517e-14 0 4.80996e-05
3.88178e-12 0 4.80996e-05
-7.75546e-12 0 4.80996e-05
7.77378e-12 0 4.80996e-05
-7.77367e-12 0 4.80996e-05
7.77378e-12 0 4.80996e-05
-7.77367e-12 0 4.80996e-05
1.05195e-10 0 4.80996e-05
-1.41036e-08 0 4.80996e-05
-1.17628e-06 0 4.80996e-05
-4.80999e-05 0 4.80996e-05
-0.00113342 0 4.80997e-05
-0.0148791 0 4.8098e-05
-0.119721 0 4.8063e-05
-1.30199 0 4.80631e-05
-4.78755 0 5.77734e-05
-1.06366 0 -4.81626e-05
0.620303 0 -0.000159165
-0.620303 0 1.71038e-06
1.06366 0 1.91371e-06
4.78755 0 1.17227e-06
1.302 0 1.17901e-06
0.119721 0 1.17555e-06
0.0148791 0 1.1767e-06
0.00113342 0 1.17668e-06
4.80996e-05 0 1.17667e-06
1.17667e-06 0 1.17667e-06
1.39062e-08 0 1.17667e-06
-9.6542e-11 0 1.17667e-06
3.34537e-16 0 1.17667e-06
-5.55112e-16 0 1.17667e-06
-1.78176e-14 0 1.17667e-06
3.88094e-12 0 1.17667e-06
-7.75568e-12 0 1.17667e-06
7.75568e-12 0 1.17667e-06
-3.88189e-12 0 1.17667e-06
1.80981e-14 0 1.17667e-06
-5.55112e-16 0 1.17667e-06
3.34537e-16 0 1.17667e-06
-5.55112e-16 0 1.17667e-06
3.34537e-16 0 1.17667e-06
-5.53641e-16 0 1.17667e-06
-1.80411e-14 0 1.17667e-06
3.88094e-12 0 1.17667e-06
-7.75574e-12 0 1.17667e-06
7.77472e-12 0 1.17667e-06
-7.77439e-12 0 1.17667e-06
7.75657e-12 0 1.17667e-06
-3.88189e-12 0 1.17667e-06
1.80981e-14 0 1.17667e-06
-5.55112e-16 0 1.17667e-06
-1.78176e-14 0 1.17667e-06
3.88094e-12 0 1.17667e-06
-7.75568e-12 0 1.17667e-06
7.77383e-12 0 1.17667e-06
-7.77439e-12 0 1.17667e-06
7.75657e-12 0 1.17667e-06
-3.88189e-12 0 1.17667e-06
1.80981e-14 0 1.17667e-06
-5.55112e-16 0 1.17667e-06
-1.78176e-14 0 1.17667e-06
3.88094e-12 0 1.17667e-06
-7.75568e-12 0 1.17667e-06
7.77383e-12 0 1.17667e-06
-7.77439e-12 0 1.17667e-06
7.77472e-12 0 1.17667e-06
-7.77439e-12 0 1.17667e-06
1.05197e-10 0 1.17667e-06
-1.41036e-08 0 1.17667e-06
-1.17628e-06 0 1.17667e-06
-4.80999e-05 0 1.17667e-06
-0.00113342 0 1.17668e-06
-0.0148791 0 1.1767e-06
-0.119721 0 1.17555e-06
-1.302 0 1.17902e-06
-4.78755 0 1.17226e-06
-1.06366 0 1.91371e-06
0.620303 0 1.71039e-06
-0.620303 0 3.34006e-08
1.06366 0 2.04268e-08
4.78755 0 1.29664e-08
1.302 0 1.40913e-08
0.119721 0 1.39836e-08
0.0148791 0 1.40114e-08
0.00113342 0 1.40025e-08
4.80996e-05 0 1.40027e-08
1.17667e-06 0 1.40027e-08
1.39062e-08 0 1.40027e-08
-9.65422e-11 0 1.40027e-08
-4.44089e-16 0 1.40027e-08
-7.77156e-16 0 1.40027e-08
-1.90958e-14 0 1.40027e-08
3.88001e-12 0 1.40027e-08
-7.75413e-12 0 1.40027e-08
7.75335e-12 0 1.40027e-08
-3.88034e-12 0 1.40027e-08
1.82077e-14 0 1.40027e-08
-7.77156e-16 0 1.40027e-08
-4.44089e-16 0 1.40027e-08
-7.77156e-16 0 1.40027e-08
-4.44089e-16 0 1.40027e-08
-4.44089e-16 0 1.40027e-08
-1.80411e-14 0 1.40027e-08
3.88001e-12 0 1.40027e-08
-7.75457e-12 0 1.40027e-08
7.77201e-12 0 1.40027e-08
-7.77234e-12 0 1.40027e-08
7.75335e-12 0 1.40027e-08
-3.88034e-12 0 1.40027e-08
1.82077e-14 0 1.40027e-08
-7.77156e-16 0 1.40027e-08
-1.90958e-14 0 1.40027e-08
3.88001e-12 0 1.40027e-08
-7.75413e-12 0 1.40027e-08
7.77201e-12 0 1.40027e-08
-7.77234e-12 0 1.40027e-08
7.75335e-12 0 1.40027e-08
-3.88034e-12 0 1.40027e-08
1.82077e-14 0 1.40027e-08
-7.77156e-16 0 1.40027e-08
-1.90958e-14 0 1.40027e-08
3.88001e-12 0 1.40027e-08
-7.75413e-12 0 1.40027e-08
7.77201e-12 0 1.40027e-08
-7.77234e-12 0 1.40027e-08
7.77201e-12 0 1.40027e-08
-7.77234e-12 0 1.40027e-08
1.05194e-10 0 1.40027e-08
-1.41036e-08 0 1.40027e-08
-1.17628e-06 0 1.40027e-08
-4.80999e-05 0 1.40027e-08
-0.00113342 0 1.40025e-08
-0.0148791 0 1.40115e-08
-0.119721 0 1.39834e-08
-1.302 0 1.40893e-08
-4.78755 0 1.29654e-08
-1.06366 0 2.04299e-08
0.620303 0 3.33978e-08
-0.620303 0 -3.34006e-08
1.06366 0 -2.04268e-08
4.78755 0 -1.29664e-08
1.302 0 -1.40913e-08
0.119721 0 -1.39836e-08
0.0148791 0 -1.40114e-08
0.00113342 0 -1.40025e-08
4.80996e-05 0 -1.40027e-08
1.17667e-06 0 -1.40027e-08
1.39062e-08 0 -1.40027e-08
-9.6542e-11 0 -1.40027e-08
3.34537e-16 0 -1.40027e-08
-5.55112e-16 0 -1.40027e-08
-1.78176e-14 0 -1.40027e-08
3.87961e-12 0 -1.40027e-08
-7.75391e-12 0 -1.40027e-08
7.75434e-12 0 -1.40027e-08
-3.88012e-12 0 -1.40027e-08
1.80981e-14 0 -1.40027e-08
-5.55112e-16 0 -1.40027e-08
3.34537e-16 0 -1.40027e-08
-5.55112e-16 0 -1.40027e-08
3.34537e-16 0 -1.40027e-08
-5.53641e-16 0 -1.40027e-08
-1.80411e-14 0 -1.40027e-08
3.87961e-12 0 -1.40027e-08
-7.75352e-12 0 -1.40027e-08
7.7725e-12 0 -1.40027e-08
-7.77217e-12 0 -1.40027e-08
7.75434e-12 0 -1.40027e-08
-3.88012e-12 0 -1.40027e-08
1.80981e-14 0 -1.40027e-08
-5.55112e-16 0 -1.40027e-08
-1.78176e-14 0 -1.40027e-08
3.87961e-12 0 -1.40027e-08
-7.75391e-12 0 -1.40027e-08
7.7725e-12 0 -1.40027e-08
-7.77217e-12 0 -1.40027e-08
7.75434e-12 0 -1.40027e-08
-3.88012e-12 0 -1.40027e-08
1.80981e-14 0 -1.40027e-08
-5.55112e-16 0 -1.40027e-08
-1.78176e-14 0 -1.40027e-08
3.87961e-12 0 -1.40027e-08
-7.75391e-12 0 -1.40027e-08
7.7725e-12 0 -1.40027e-08
-7.77217e-12 0 -1.40027e-08
7.7725e-12 0 -1.40027e-08
-7.77217e-12 0 -1.40027e-08
1.05194e-10 0 -1.40027e-08
-1.41036e-08 0 -1.40027e-08
-1.17628e-06 0 -1.40027e-08
-4.80999e-05 0 -1.40027e-08
-0.00113342 0 -1.40025e-08
-0.0148791 0 -1.40115e-08
-0.119721 0 -1.39834e-08
-1.302 0 -1.40893e-08
-4.78755 0 -1.29654e-08
-1.06366 0 -2.04299e-08
0.620303 0 -3.33978e-08
-0.620303 0 -1.71038e-06
1.06366 0 -1.91371e-06
4.78755 0 -1.17227e-06
1.302 0 -1.17901e-06
0.119721 0 -1.17555e-06
0.0148791 0 -1.1767e-06
0.00113342 0 -1.17668e-06
4.80996e-05 0 -1.17667e-06
1.17667e-06 0 -1.17667e-06
1.39062e-08 0 -1.17667e-06
-9.65418e-11 0 -1.17667e-06
-4.44089e-16 0 -1.17667e-06
-3.33067e-16 0 -1.17667e-06
-1.86517e-14 0 -1.17667e-06
3.8809e-12 0 -1.17667e-06
-7.75546e-12 0 -1.17667e-06
7.75646e-12 0 -1.17667e-06
-3.88167e-12 0 -1.17667e-06
1.82077e-14 0 -1.17667e-06
-3.33067e-16 0 -1.17667e-06
-4.44089e-16 0 -1.17667e-06
-3.33067e-16 0 -1.17667e-06
-4.44089e-16 0 -1.17667e-06
-4.44089e-16 0 -1.17667e-06
-1.80411e-14 0 -1.17667e-06
3.8809e-12 0 -1.17667e-06
-7.75591e-12 0 -1.17667e-06
7.77467e-12 0 -1.17667e-06
-7.77456e-12 0 -1.17667e-06
7.75646e-12 0 -1.17667e-06
-3.88167e-12 0 -1.17667e-06
1.82077e-14 0 -1.17667e-06
-3.33067e-16 0 -1.17667e-06
-1.86517e-14 0 -1.17667e-06
3.8809e-12 0 -1.17667e-06
-7.75546e-12 0 -1.17667e-06
7.77467e-12 0 -1.17667e-06
-7.77456e-12 0 -1.17667e-06