# vtk DataFile Version 3.0
SiWiRVisFile
ASCII
DATASET UNSTRUCTURED_GRID
POINTS 1600 DOUBLE
76.3781 100 72.6456
76.0209 100 73.6322
77.16 100 73.9798
79.2062 100 73.8201
80.2883 100 74.1467
81.4826 100 74.4345
83.2652 100 74.1469
84.3107 100 74.5275
85.2725 100 74.9126
84.3937 100 73.4409
91.9695 100 71.1859
91.3478 100 70.0908
91.0627 100 71.8894
90.1181 100 70.117
86.9926 100 69.3709
90.3777 100 61.4109
91.4659 100 61.1581
93.1229 100 59.8194
89.7566 100 55.2423
95.0875 100 58.48
104.563 100 41.2908
106.269 100 40.9223
106.27 100 39.7554
107.133 100 40.3545
105.04 100 39.3122
111.044 100 40.6024
110.614 100 34.3077
111.605 100 32.9588
111.048 100 35.6809
111.679 100 34.6548
112.869 100 34.7594
113.91 100 35.2778
112.622 100 33.6667
113.782 100 33.9137
113.526 100 40.9886
119.466 100 39.3379
117.202 100 40.2782
118.211 100 39.7508
118.178 100 40.9183
119.945 100 41.2807
129.358 100 58.2406
134.736 100 55.2423
131.249 100 59.6783
132.95 100 62.1101
134.132 100 61.5049
135.957 100 69.9376
134.917 100 69.4688
134.267 100 72.0779
133.517 100 69.9411
133.211 100 71.3938
140.298 100 73.5971
138.759 100 75.1002
140.096 100 74.6318
141.297 100 74.2455
143.1 100 74.7172
144.101 100 74.2205
145.16 100 73.8043
147.359 100 73.9632
148.459 100 73.5301
148.128 100 72.497
75.1878 100 74.3425
76.2432 100 74.6856
78.3361 100 74.5272
79.3509 100 74.9308
80.4634 100 75.2293
82.4126 100 75.0141
83.4525 100 75.415
84.5047 100 75.7126
85.6408 100 76.065
86.7971 100 76.1528
87.8002 100 75.8554
91.7939 100 69.1583
89.991 100 71.4523
91.0079 100 66.8911
92.2619 100 63.4904
90.6889 100 69.1745
92.5463 100 60.7848
94.2076 100 59.9536
95.279 100 59.7246
97.8181 100 59.3471
105.31 100 40.343
97.5535 100 47.0945
106.404 100 49.4172
110.598 100 38.1671
108.177 100 39.8472
109.89 100 40.6145
109.989 100 39.4556
109.432 100 38.5207
107.6 100 32.6179
111.961 100 36.1448
112.993 100 35.8773
117.053 100 32.6577
114.179 100 37.5468
115.071 100 39.1601
114.6 100 40.4097
115.79 100 40.3429
113.951 100 38.6462
118.316 100 48.8044
126.939 100 47.0945
119.159 100 40.3538
126.407 100 59.1104
128.29 100 59.8023
130.042 100 59.1591
132.408 100 60.743
132.971 100 68.7968
132.375 100 63.0855
133.024 100 66.6983
134.449 100 70.9323
132.314 100 69.6847
136.962 100 76.2884
137.99 100 75.9297
139.059 100 76.1636
140.063 100 75.7317
141.037 100 75.3418
142.089 100 75.2186
144.007 100 75.3224
145.091 100 74.8346
146.133 100 74.3621
148.225 100 74.6565
149.274 100 74.2828
75.3704 100 75.4232
76.4013 100 75.7479
77.3197 100 75.0723
78.3466 100 75.6294
79.4632 100 75.9222
81.4477 100 75.6593
82.5987 100 76.1565
83.702 100 76.5285
84.6851 100 76.7974
85.836 100 77.1827
87.0329 100 77.1991
87.4884 100 78.2857
89.2566 100 76.6434
91.3349 100 68.0516
92.3356 100 65.5204
93.179 100 64.7608
92.67 100 62.0994
93.7027 100 61.4047
94.8744 100 60.9749
97.1048 100 58.5334
98.2091 100 58.2633
104.439 100 50.51
105.391 100 50.0036
106.49 100 50.4401
101.722 100 47.1943
107.498 100 49.5028
106.933 100 48.3887
105.5 100 48.9389
110.406 100 36.8975
111.585 100 37.1807
113.137 100 37.0953
113.979 100 36.4749
120.427 100 47.886
117.184 100 48.4324
117.36 100 49.9253
121.208 100 48.6718
117.794 100 51.114
118.788 100 50.4728
120.161 100 51.4463
125.698 100 58.1095
127.895 100 58.8466
130.293 100 60.7132
131.313 100 61.1311
131.52 100 62.1646
132.444 100 64.371
131.91 100 65.801
132.96 100 67.7163
134.62 100 76.9711
136.623 100 77.4685
137.666 100 77.2043
138.778 100 77.3409
139.783 100 77.0374
140.783 100 76.6542
141.716 100 76.1795
143.017 100 75.7812
144.907 100 75.9208
146.249 100 75.4447
147.216 100 74.9704
148.071 100 75.6991
149.136 100 75.4095
75.477 100 76.5362
76.5118 100 76.8425
77.3495 100 76.2111
78.6489 100 76.656
80.5141 100 76.3281
81.6637 100 76.6858
82.9442 100 77.3248
83.9991 100 77.7915
85.2429 100 78.1633
86.3264 100 78.299
87.2779 100 79.4737
89.4553 100 77.775
88.3113 100 77.2298
92.4492 100 68.4173
92.1245 100 67.2435
93.5234 100 65.9473
94.6361 100 63.5825
93.3636 100 63.3751
94.3503 100 62.2964
95.3302 100 61.907
96.0878 100 61.005
98.9811 100 59.1834
104.404 100 49.4525
105.722 100 54.6067
105.347 100 51.1834
105.913 100 52.6804
108.496 100 51.7421
110.506 100 52.0055
108.123 100 48.5884
111.072 100 39.4442
113.633 100 39.7875
116.487 100 49.2673
115.315 100 50.5416
115.897 100 51.4387
118.137 100 52.2121
119.087 100 51.5898
119.562 100 52.5148
119.864 100 49.8273
125.293 100 59.2112
128.022 100 60.8916
129.593 100 61.5514
130.394 100 62.4723
131.155 100 63.1888
131.116 100 64.445
130.926 100 65.4639
132.028 100 67.1725
131.981 100 68.3117
135.742 100 76.2717
136.133 100 78.949
137.145 100 78.6597
138.332 100 78.2789
139.505 100 78.1505
140.726 100 77.8135
141.83 100 77.3536
142.889 100 76.9313
143.891 100 76.4314
145.918 100 76.5112
147.148 100 76.1529
148.07 100 76.8138
149.021 100 76.4903
75.3162 100 77.6371
76.5799 100 77.9951
77.7192 100 77.2052
79.684 100 77.0075
80.7215 100 77.4382
81.7857 100 77.9012
82.8629 100 78.4185
83.8109 100 79.1221
85.0325 100 79.3172
86.1414 100 79.3531
87.0671 100 80.5041
89.8642 100 78.9072
90.9192 100 76.5339
94.5812 100 65.9366
93.2206 100 67.1307
95.4069 100 64.5375
96.2309 100 63.8096
95.6818 100 62.9781
96.461 100 62.2434
97.2668 100 60.9801
96.9515 100 59.9822
102.77 100 58.3839
104.975 100 53.5178
107.007 100 52.8428
107.242 100 51.5353
108.214 100 52.8515
109.503 100 52.8242
110.54 100 53.1165
107.964 100 50.5011
111.621 100 41.7541
112.671 100 41.7182
116.498 100 50.554
114.274 100 53.2097
115.07 100 52.3263
116.305 100 52.8805
116.881 100 51.9585
117.47 100 53.0244
117.743 100 54.1461
121.408 100 57.7316
127.273 100 59.7775
126.985 100 60.9432
127.724 100 61.9265
129.206 100 62.8319
130.155 100 63.7596
128.923 100 64.23
131.007 100 67.9738
130.159 100 66.3317
135.701 100 78.0013
134.986 100 78.9081
137.65 100 80.571
137.935 100 79.476
139.059 100 79.2803
140.438 100 78.9568
141.638 100 78.512
142.674 100 77.983
143.825 100 77.5223
144.897 100 77.0385
146.786 100 77.2222
147.987 100 77.8994
149.227 100 77.5717
75.7388 100 78.6134
76.6857 100 79.0839
77.6022 100 78.3523
78.623 100 77.8175
79.6679 100 78.0844
80.8 100 78.5838
81.8616 100 78.9497
82.6142 100 79.7072
83.5112 100 80.2916
84.574 100 80.3345
85.7753 100 80.4638
88.4651 100 78.935
90.3794 100 79.987
88.8237 100 75.5874
91.2327 100 75.539
94.2257 100 64.8987
96.472 100 64.8868
97.4218 100 64.3149
97.1006 100 63.2109
97.8147 100 62.0894
98.0766 100 60.3371
100.877 100 59.6752
103.87 100 56.6074
104.829 100 56.1145
106.463 100 53.7495
107.698 100 53.9909
108.459 100 54.9611
108.745 100 53.8051
111.512 100 52.7596
111.436 100 51.2506
114.394 100 51.1549
112.952 100 53.8425
115.371 100 53.3118
115.6 100 54.4611
116.692 100 53.8297
119.071 100 53.5027
119.105 100 54.6035
121.187 100 56.6234
123.466 100 60.1736
126.187 100 60.1881
126.656 100 62.0861
128.262 100 63.3767
127.696 100 64.4266
128.231 100 65.4467
129.717 100 64.9136
133.769 100 74.7926
134.934 100 74.2758
134.301 100 79.7599
136.822 100 79.6997
138.733 100 80.2887
139.872 100 80.0097
141.035 100 80.2494
141.913 100 79.7706
142.704 100 79.0708
143.732 100 78.6424
144.833 100 78.1237
145.804 100 77.8132
146.854 100 78.444
147.826 100 79.1184
148.88 100 78.5534
74.7968 100 79.1735
75.7972 100 79.8099
77.8238 100 79.4654
78.8185 100 78.8579
79.9714 100 79.2592
79.6085 100 81.9448
81.5629 100 80.433
82.5763 100 80.827
83.7405 100 81.3294
84.9029 100 81.3566
86.1003 100 81.5758
89.2083 100 80.0994
91.114 100 80.8903
89.8543 100 75.4944
95.6319 100 66.9934
95.4716 100 65.5668
96.5017 100 65.9488
98.6983 100 64.8034
98.285 100 63.2882
98.4909 100 61.3226
99.7511 100 60.0193
101.978 100 59.1905
103.79 100 57.7364
106.782 100 54.768
108.78 100 56.1546
109.623 100 54.4649
108.76 100 58.4503
110.722 100 54.195
107.791 100 59.0552
109.215 100 59.4394
115.681 100 59.0949
116.177 100 57.9765
114.554 100 54.2771
115.083 100 58.1495
114.773 100 55.5475
116.031 100 55.6304
116.876 100 54.9076
120.249 100 57.8518
121.888 100 58.9564
124.862 100 60.4293
125.446 100 61.5693
127.175 100 63.06
126.285 100 64.0172
127.103 100 66.2626
129.201 100 65.8527
129.372 100 67.0564
134.773 100 75.7156
131.313 100 81.833
135.497 100 79.9977
138.399 100 81.593
139.376 100 81.0845
140.451 100 81.2633
142.022 100 80.8822
142.936 100 80.2139
144.691 100 80.4742
144.647 100 79.252
145.755 100 78.8842
146.844 100 79.633
148.739 100 79.7735
149.773 100 79.2592
74.6786 100 80.5398
75.7067 100 80.939
76.8113 100 80.2261
77.6696 100 80.7663
78.7061 100 80.2234
78.6317 100 81.3882
80.6047 100 81.0885
81.6364 100 81.5339
82.8151 100 82.0794
84.101 100 82.2868
85.4132 100 82.4072
86.6632 100 82.4969
88.1395 100 80.13
87.7246 100 81.4592
87.759 100 82.7083
91.5221 100 79.857
96.5611 100 67.6019
97.4592 100 65.4043
100.453 100 63.7539
99.2201 100 63.7298
99.0342 100 62.3887
99.5497 100 61.0088
104.475 100 58.8585
106.412 100 55.8655
107.48 100 55.8599
109.03 100 57.3439
107.987 100 56.8583
105.916 100 59.632
106.899 100 59.9585
109.435 100 61.5639
115.272 100 60.1627
118.764 100 59.7214
119.455 100 60.5881
116.477 100 56.895
115.33 100 57.0688
117.072 100 55.927
118.079 100 55.0928
120.797 100 58.8873
124.312 100 61.5144
125.799 100 62.743
125.091 100 63.7541
125.453 100 64.8471
126.857 100 65.2057
128.33 100 66.6115
132.103 100 81.0066
136.294 100 82.2036
137.264 100 81.7078
136.461 100 80.7083
137.284 100 82.8365
138.463 100 82.9486
139.53 100 82.147
141.713 100 81.8766
142.771 100 81.6838
143.657 100 81.0245
145.747 100 81.2161
145.734 100 80.1088
146.739 100 80.8275
147.762 100 80.3002
148.871 100 81.2386
149.66 100 80.4394
74.601 100 81.6923
75.5943 100 82.3043
76.649 100 81.2988
77.6127 100 81.8451
78.5379 100 83.8903
77.5667 100 84.654
78.6846 100 82.5129
80.6892 100 82.1947
81.6634 100 82.7291
80.6053 100 83.2562
82.6265 100 83.21
84.6123 100 83.3156
86.0542 100 83.3724
87.1018 100 83.7325
88.96 100 83.2951
90.9699 100 78.8378
97.387 100 68.3017
97.6354 100 67.1464
99.8697 100 64.8374
100.55 100 65.6392
100.646 100 61.6265
[...]
POINT_DATA 1600
SCALARS mass double
LOOKUP_TABLE default
1
1
1
1
1
1
1
1
1
1
1
1
1
1
1
1
1
1
1
1
1
1
1
1
1
1
1
1
1
1
1
1
1
1
1
1
1
1
1
1
1
1
1
1
1
1
1
1
1
1
1
1
1
1
1
1
1
1
1
1
1
1
1
1
1
1
1
1
1
1
1
1
1
1
1
1
1
1
1
1
1
1
1
1
1
1
1
1
1
1
1
1
1
1
1
1
1
1
1
1
1
1
1
1
1
1
1
1
1
1
1
1
1
1
1
1
1
1
1
1
1
1
1
1
1
1
1
1
1
1
1
1
1
1
1
1
1
1
1
1
1
1
1
1
1
1
1
1
1
1
1
1
1
1
1
1
1
1
1
1
1
1
1
1
1
1
1
1
1
1
1
1
1
1
1
1
1
1
1
1
1
1
1
1
1
1
1
1
1
1
1
1
1
1
1
1
1
1
1
1
1
1
1
1
1
1
1
1
1
1
1
1
1
1
1
1
1
1
1
1
1
1
1
1
1
1
1
1
1
1
1
1
1
1
1
1
1
1
1
1
1
1
1
1
1
1
1
1
1
1
1
1
1
1
1
1
1
1
1
1
1
1
1
1
1
1
1
1
1
1
1
1
1
1
1
1
1
1
1
1
1
1
1
1
1
1
1
1
1
1
1
1
1
1
1
1
1
1
1
1
1
1
1
1
1
1
1
1
1
1
1
1
1
1
1
1
1
1
1
1
1
1
1
1
1
1
1
1
1
1
1
1
1
1
1
1
1
1
1
1
1
1
1
1
1
1
1
1
1
1
1
1
1
1
1
1
1
1
1
1
1
1
1
1
1
1
1
1
1
1
1
1
1
1
1
1
1
1
1
1
1
1
1
1
1
1
1
1
1
1
1
1
1
1
1
1
1
1
1
1
1
1
1
1
1
1
1
1
1
1
1
1
1
1
1
1
1
1
1
1
1
1
1
1
1
1
1
1
1
1
1
1
1
1
1
1
1
1
1
1
1
1
1
1
1
1
1
1
1
1
1
1
1
1
1
1
1
1
1
1
1
1
1
1
1
1
1
1
1
1
1
1
1
1
1
1
1
1
1
1
1
1
1
1
1
1
1
1
1
1
1
1
1
1
1
1
1
1
1
1
1
1
1
1
1
1
1
1
1
1
1
1
1
1
1
1
1
1
1
1
1
1
1
1
1
1
1
1
1
1
1
1
1
1
1
1
1
1
1
1
1
1
1
1
1
1
1
1
1
1
1
1
1
1
1
1
1
1
1
1
1
1
1
1
1
1
1
1
1
1
1
1
1
1
1
1
1
1
1
1
1
1
1
1
1
1
1
1
1
1
1
1
1
1
1
1
1
1
1
1
1
1
1
1
1
1
1
1
1
1
1
1
1
1
1
1
1
1
1
1
1
1
1
1
1
1
1
1
1
1
1
1
1
1
1
1
1
1
1
1
1
1
1
1
1
1
1
1
1
1
1
1
1
1
1
1
1
1
1
1
1
1
1
1
1
1
1
1
1
1
1
1
1
1
1
1
1
1
1
1
1
1
1
1
1
1
1
1
1
1
1
1
1
1
1
1
1
1
1
1
1
1
1
1
1
1
1
1
1
1
1
1
1
1
1
1
1
1
1
1
1
1
1
1
1
1
1
1
1
1
1
1
1
1
1
1
1
1
1
1
1
1
1
1
1
1
1
1
1
1
1
1
1
1
1
1
1
1
1
1
1
1
1
1
1
1
1
1
1
1
1
1
1
1
1
1
1
1
1
1
1
1
1
1
1
1
1
1
1
1
1
1
1
1
1
1
1
1
1
1
1
1
1
1
1
1
1
1
1
1
1
1
1
1
1
1
1
1
1
1
1
1
1
1
1
1
1
1
1
1
1
1
1
1
1
1
1
1
1
1
1
1
1
1
1
1
1
1
1
1
1
1
1
1
1
1
1
1
1
1
1
1
1
1
1
1
1
1
1
1
1
1
1
1
1
1
1
1
1
1
1
1
1
1
1
1
1
1
1
1
1
1
1
1
1
1
1
1
1
1
1
1
1
1
1
1
1
1
1
1
1
1
1
1
1
1
1
1
1
1
1
1
1
1
1
1
1
1
1
1
1
1
1
1
1
1
1
1
1
1
1
1
1
1
1
1
1
1
1
1
1
1
1
1
1
1
1
1
1
1
1
1
1
1
1
1
1
1
1
1
1
1
1
1
1
1
1
1
1
1
1
1
1
1
1
1
1
1
1
1
1
1
1
1
1
1
1
1
1
1
1
1
1
1
1
1
1
1
1
1
1
1
1
1
1
1
1
1
1
1
1
1
1
1
1
1
1
1
1
1
1
1
1
1
1
1
1
1
1
1
1
1
1
1
1
1
1
1
1
1
1
1
1
1
1
1
1
1
1
1
1
1
1
1
1
1
1
1
1
1
1
1
1
1
1
1
1
1
1
1
1
1
1
1
1
1
1
1
1
1
1
1
1
1
1
1
1
1
1
1
1
1
1
1
1
1
1
1
1
1
1
1
1
1
1
1
1
1
1
1
1
1
1
1
1
1
1
1
1
1
1
1
1
1
1
1
1
1
1
1
1
1
1
1
1
1
1
1
1
1
1
1
1
1
1
1
1
1
1
1
1
1
1
1
1
1
1
1
1
1
1
1
1
1
1
1
1
1
1
1
1
1
1
1
1
1
1
1
1
1
1
1
1
1
1
1
1
1
1
1
1
1
1
1
1
1
1
1
1
1
1
1
1
1
1
1
1
1
1
1
1
1
1
1
1
1
1
1
1
1
1
1
1
1
1
1
1
1
1
1
1
1
1
1
1
1
1
1
1
1
1
1
1
1
1
1
1
1
1
1
1
1
1
1
1
1
1
1
1
1
1
1
1
1
1
1
1
1
1
1
1
1
1
1
1
1
1
1
1
1
1
1
1
1
1
1
1
1
1
1
1
1
1
1
1
1
1
1
1
1
1
1
1
1
1
1
1
1
1
1
1
1
1
1
1
1
1
1
1
1
1
1
1
1
1
1
1
1
1
1
1
1
1
1
1
1
1
1
1
1
1
1
1
1
1
1
1
1
1
1
1
1
1
1
1
1
1
1
1
1
1
1
1
1
1
1
1
1
1
1
1
1
1
1
1
1
1
1
1
1
1
1
1
1
1
1
1
1
1
1
1
1
1
1
1
1
1
1
1
1
1
1
1
1
1
1
1
1
1
1
1
1
1
1
1
1
1
1
1
1
1
1
1
1
1
1
1
1
1
1
1
1
1
1
1
1
1
1
1
1
1
1
1
1
1
1
1
1
1
1
1
1
1
1
1
1
1
1
1
1
1
1
1
1
1
1
1
1
1
1
1
1
1
1
1
1
1
1
1
1
1
1
1
1
1
1
1
1
1
1
1
1
1
1
1
1
1
1
1
1
1
1
1
1
1
1
1
1
1
1
1
1
1
1
1
1
1
1
1
1
1
1
1
1
1
1
1
1
1
1
1
1
1
1
1
1
1
1
1
1
1
1
1
1
1
1
1
1
1
1
1
1
1
1
1
1
1
1
1
1
1
1
1
1
1
1
1
1
1
1
1
1
1
1
1
1
1
1
1
1
1
1
1
1
1
1
1
1
1
1
VECTORS force double
16.5453 0 -34.6677
-0.21713 0 19.3255
-9.04617 0 -1.70253
1.98562 0 2.47121
-1.40329 0 3.31855
-27.5683 0 12.3704
-1.63666 0 15.421
-59.1407 0 13.8144
57.4642 0 29.3857
-6.71884 0 -4.1703
-12.0189 0 -8.05486
-33.8432 0 65.0936
-2.3457 0 -8.70429
9.28201 0 16.1792
0 0 0
-0.924098 0 0.327732
11.1896 0 1.1206
-9.55803 0 2.61721
0 0 0
1.34936 0 14.2821
9.69088 0 -10.4132
-52.0211 0 24.5335
-43.7518 0 -17.9801
88.9724 0 -13.1641
3.83782 0 -21.843
-3.68077 0 -0.133111
4.48636 0 4.48499
8.71331 0 12.4299
-63.7394 0 -38.6067
14.9537 0 7.81781
2.72867 0 -0.861742
-0.68728 0 -6.314
-6.49869 0 2.66171
-18.8146 0 15.8184
10.7272 0 -16.7671
-1.47527 0 -25.4014
3.71047 0 3.02608
6.58396 0 7.45504
-2.79295 0 -14.714
-9.7766 0 -10.3344
-1.27509 0 7.05536
0 0 0
-12.1832 0 11.3268
-3.6042 0 -8.21861
-10.7669 0 4.41254
-5.81797 0 -0.848996
-4.12809 0 8.40844
-8.84113 0 -14.0122
-5.50276 0 -2.50048
20.721 0 -4.27995
16.3588 0 -29.1132
10.996 0 -2.47995
4.65582 0 36.8331
-11.807 0 10.9476
-11.4746 0 -29.9447
13.1715 0 -0.236403
0.205124 0 -58.0786
8.89102 0 -86.7289
-9.79953 0 23.7294
-5.81211 0 -10.7483
-10.6291 0 -3.15942
13.1395 0 1.50975
-26.2868 0 -9.61612
2.57454 0 -115.182
-26.1495 0 -7.76969
8.77231 0 10.0017
-1.25079 0 -14.52
9.15187 0 -5.35386
-14.3541 0 -1.85584
-61.7666 0 -3.10548
13.2354 0 7.86822
-70.0245 0 44.7239
9.49772 0 -8.52938
13.342 0 13.7684
0.438783 0 -1.94171
5.84909 0 -15.021
7.77533 0 16.5516
6.7141 0 17.4382
10.1396 0 2.17608
21.1306 0 -77.388
1.82529 0 35.3397
0 0 0
49.3192 0 -35.7861
-6.72632 0 1.78203
-4.65219 0 2.56006
8.72397 0 -10.9542
-5.2409 0 16.637
5.08918 0 -13.753
0 0 0
45.1818 0 30.503
23.3777 0 12.0071
0 0 0
-0.668473 0 11.6344
-14.6486 0 12.8828
-2.00502 0 -9.06215
-7.51718 0 -7.32671
7.53015 0 13.7714
-13.3413 0 5.15977
0 0 0
-4.83453 0 40.2108
-6.28413 0 -22.9955
108.469 0 58.211
5.7876 0 5.29922
-9.09967 0 9.00458
14.8019 0 24.8965
-19.9566 0 1.57141
3.9045 0 -86.9184
-14.8456 0 -1.5982
6.69352 0 -0.317822
-22.3381 0 22.0633
3.6242 0 6.54794
1.73875 0 27.641
-29.8688 0 33.8711
-15.2226 0 -23.7826
38.2044 0 -79.3865
15.6955 0 -7.82891
-5.43556 0 60.5891
15.3632 0 -6.39603
46.7908 0 -42.0453
2.63972 0 6.17115
-8.52841 0 0.232721
-17.6727 0 6.76343
5.49835 0 13.4049
-5.04137 0 -19.965
23.844 0 104.341
23.0139 0 -40.4841
19.7071 0 -9.80085
-76.2689 0 -28.2594
94.366 0 40.2232
5.80418 0 3.28012
4.4176 0 36.4596
-1.38906 0 1.01264
8.63697 0 -10.0585
5.97656 0 11.222
14.5244 0 5.21367
-33.7617 0 -2.63161
9.11154 0 -7.74195
-9.21845 0 -14.1159
-29.736 0 -58.0726
-8.4411 0 -5.40234
1.27966 0 16.8471
-12.336 0 43.3771
30.322 0 23.2681
6.03036 0 72.995
0 0 0
-9.86339 0 -5.25587
8.29734 0 21.9345
-70.331 0 -54.2851
18.6828 0 6.16798
-15.3081 0 5.31654
-42.9674 0 14.4002
27.0826 0 -54.1395
-3.88981 0 -2.40795
19.2871 0 -1.05439
41.8692 0 -5.30597
1.7885 0 4.68977
-2.5061 0 -1.44981
-0.359006 0 5.68865
6.467 0 3.70766
4.28585 0 19.4391
-24.3157 0 -55.5477
6.23308 0 -18.453
3.13063 0 -39.218
18.8553 0 32.2053
-15.8732 0 -7.04168
53.896 0 23.0238
4.82506 0 75.825
13.1506 0 -9.76302
8.74897 0 -10.1314
24.135 0 -7.14982
-23.302 0 -60.7355
25.65 0 -2.6723
-14.0209 0 9.84196
44.7124 0 65.6895
-19.3347 0 42.9723
24.1092 0 18.6693
-26.6232 0 21.1133
-37.5291 0 91.6838
56.9006 0 12.5514
-2.88348 0 -24.2818
-5.38615 0 -14.2144
-8.94204 0 53.0339
69.5662 0 -44.7358
-1.89399 0 22.5629
31.2321 0 -5.59836
-22.1229 0 70.1124
-17.8695 0 -10.3414
-1.36766 0 -4.4751
-21.3255 0 -0.574713
25.9942 0 -37.1593
-2.39407 0 -68.3929
0.907779 0 3.94713
-12.3689 0 8.09313
86.3507 0 -128.226
-12.9655 0 8.83215
-44.8312 0 -12.9998
4.80463 0 -0.0587183
18.0497 0 -0.09887
-26.7727 0 29.876
73.1598 0 33.6771
-0.625389 0 6.53584
-18.2318 0 2.47705
12.7014 0 -37.26
-23.4561 0 -7.21936
9.20428 0 -13.7531
-8.29341 0 13.3992
-13.0231 0 0.427407
8.17483 0 4.37121
-9.77565 0 -4.02536
9.71158 0 -0.200998
11.2086 0 3.28829
-17.384 0 17.6113
2.98939 0 -23.7279
-12.5555 0 54.3857
23.6673 0 -37.6296
-53.9263 0 -52.6228
24.8938 0 29.6369
-9.79027 0 7.60617
5.44204 0 11.0271
54.8862 0 -28.5469
-3.53468 0 26.6589
-44.7505 0 -32.7675
35.848 0 60.1317
9.24134 0 -70.1114
-75.5748 0 39.4071
-32.1092 0 -4.14993
61.8937 0 17.9281
7.9028 0 13.5259
-82.4171 0 4.16689
50.3651 0 -39.6119
-28.2686 0 62.5258
16.6099 0 21.1054
-7.17848 0 -4.11485
-48.7161 0 -28.0697
-10.0691 0 -34.9208
22.3367 0 1.63945
-4.35016 0 6.80127
-72.7628 0 23.0296
-107.682 0 29.5921
88.6151 0 -35.3753
4.88866 0 -21.6036
19.3128 0 -59.8752
-31.8394 0 38.8018
-13.8568 0 8.52929
5.47692 0 5.81304
-0.324283 0 -50.6469
2.49505 0 16.7992
-2.16647 0 6.70544
-8.08409 0 -6.40168
3.34977 0 32.7804
-20.6561 0 44.4229
-10.8814 0 1.02237
-25.8184 0 55.2961
-171.097 0 97.6411
6.78494 0 -9.84115
-28.6679 0 -63.9676
52.9443 0 117.338
-96.8866 0 -83.7337
20.8222 0 -26.0186
-29.223 0 98.0982
-29.6328 0 -26.5856
10.7812 0 -4.40425
21.5244 0 1.54663
43.1162 0 -29.9824
9.58866 0 -2.98294
-11.8595 0 -6.21742
-31.6868 0 -2.49065
-40.9316 0 20.8804
-7.3425 0 23.0096
-46.315 0 -9.78352
41.3038 0 -2.97602
-8.60218 0 -6.21425
-5.24009 0 -11.4516
-11.9024 0 -68.1915
26.0653 0 -89.4144
32.2257 0 -11.5323
-35.8205 0 27.4689
-23.3023 0 -102.703
-10.4962 0 19.2682
-83.3955 0 27.5324
-43.7108 0 16.1992
4.12668 0 22.3289
29.5836 0 -5.27897
-6.11698 0 -0.0735074
-26.1269 0 -13.3994
-51.5781 0 -29.9597
43.7095 0 -17.0012
-51.0697 0 -30.5764
9.50667 0 -6.41135
-13.6029 0 10.0928
4.16299 0 -8.22971
0.901473 0 -59.2725
-3.16774 0 -2.46266
5.50254 0 4.47803
39.8702 0 36.8305
9.11773 0 19.3309
-2.2495 0 -9.58252
12.44 0 13.4628
-14.0253 0 18.2358
-0.472982 0 -40.9027
-47.0848 0 45.9844
45.7413 0 34.0619
23.9478 0 7.83071
-13.0625 0 -41.8433
36.5654 0 35.6307
17.7373 0 -33.9449
-14.1967 0 25.0029
0.252365 0 -3.39601
5.53071 0 -37.2142
22.9591 0 -13.8057
-7.49291 0 -1.35699
-5.1786 0 11.8986
2.02361 0 -14.6919
-25.1063 0 4.02788
5.20527 0 -46.8874
46.3556 0 -4.29585
-14.8099 0 -18.899
5.75314 0 -29.307
36.0333 0 -28.8529
-55.8056 0 68.4254
56.0634 0 6.67745
-0.699468 0 -0.192153
-13.6002 0 14.8513
30.4503 0 0.593186
-25.1475 0 -1.6569
-42.19 0 1.22442
-2.01017 0 -5.4851
32.9515 0 0.0315198
44.1079 0 -28.7854
-8.68335 0 13.2199
6.13111 0 13.1952
7.46416 0 -2.97793
-32.9783 0 111.203
47.3905 0 8.91363
-0.726781 0 58.1429
-14.9085 0 -2.70958
-12.9762 0 -16.3444
-2.93489 0 6.20552
10.0096 0 5.12249
-17.4413 0 -2.00788
-14.0572 0 -28.9182
-30.7706 0 -3.46031
8.08392 0 -8.03145
-46.7797 0 -16.9649
61.8497 0 6.37377
17.9392 0 2.05291
-11.3887 0 11.8973
29.1195 0 45.3781
62.5453 0 59.8558
-53.3438 0 -23.5932
13.7852 0 18.4123
-113.439 0 61.2069
70.3235 0 -48.0813
16.8016 0 -6.93494
-4.30224 0 -16.7781
-89.6706 0 49.4658
85.8405 0 -62.2015
-1.32021 0 -2.89629
6.49966 0 -14.2655
-22.4279 0 70.3455
3.18028 0 16.8319
-19.5388 0 -14.187
-9.08715 0 10.5137
3.61865 0 40.8246
-35.2726 0 2.80866
16.3417 0 -2.70075
-9.04099 0 -18.934
1.41366 0 37.293
-24.0056 0 -48.3271
13.2495 0 30.2805
-3.57949 0 -43.88
34.0268 0 -17.5539
-7.21302 0 -4.55312
66.464 0 10.1227
-1.00768 0 -21.46
213.156 0 -32.1279
-2.39396 0 46.8594
-16.5917 0 -31.5875
-68.5298 0 -32.3184
49.0298 0 -27.213
22.8074 0 -100.059
-8.79699 0 2.92188
3.66772 0 12.6591
46.4213 0 38.027
12.6763 0 -25.256
-1.76262 0 3.63109
-10.7057 0 -13.3011
-0.778121 0 6.43364
-12.2991 0 -45.121
-15.3408 0 3.52822
5.22631 0 -5.58313
-7.17905 0 1.54854
-20.1128 0 1.88312
-5.5145 0 4.13494
17.9158 0 -15.021
-32.1915 0 -3.44491
2.23121 0 -51.3186
10.6338 0 15.1999
4.96289 0 -8.769
7.22229 0 7.22501
3.29851 0 9.6726
-2.05813 0 8.15912
-2.8684 0 -1.67136
18.1965 0 7.95694
1.59752 0 37.5571
-22.7537 0 3.5164
-8.63422 0 -1.66473
17.4877 0 26.6965
8.92953 0 -19.3119
-6.38928 0 1.26151
41.3821 0 20.0643
15.0337 0 -3.17934
3.31291 0 -59.7428
-10.0392 0 -12.7625
-6.35176 0 0.566037
21.7972 0 12.6939
0.26883 0 32.9398
-20.9068 0 3.13966
11.6377 0 -8.50508
-12.7088 0 9.43563
4.58851 0 -9.86255
-86.4153 0 -27.551
-64.9596 0 -67.2469
84.7191 0 21.4796
-11.9295 0 -2.82506
-2.74492 0 -9.63559
-2.06705 0 -1.07913
13.1253 0 21.4228
-3.17337 0 -11.4346
35.005 0 67.9983
-18.3887 0 21.4617
18.7349 0 -2.87571
-15.3649 0 6.95942
-9.27689 0 1.24959
2.88532 0 5.45208
-4.53753 0 -17.6237
-0.613365 0 -15.5444
19.5596 0 9.79512
-13.8313 0 27.2235
68.2311 0 33.1848
-6.08761 0 0.00234641
-9.04951 0 105.638
-4.5539 0 4.94752
-42.9787 0 -20.2194
35.5854 0 -14.5591
-10.1229 0 -9.66552
-6.23096 0 25.5593
-69.002 0 -10.2848
67.7077 0 11.7238
-20.4555 0 10.6918
4.69215 0 -3.44252
3.78143 0 -15.326
2.85129 0 0.840962
-9.05405 0 -11.8948
17.8598 0 -3.39902
38.424 0 54.0545
24.6213 0 71.1998
-7.07751 0 -26.8559
25.1826 0 -11.6706
7.60232 0 20.497
16.6189 0 -5.83794
29.276 0 -26.4458
-10.5794 0 -18.5478
-12.3656 0 -10.1489
-17.7088 0 -3.53124
0.862449 0 1.53095
14.7506 0 -22.8303
1.7836 0 26.6257
16.3451 0 -32.4444
-7.01052 0 -6.45373
-6.96932 0 18.7493
-39.9587 0 64.783
30.5087 0 16.7504
18.1094 0 -3.5171
-26.1967 0 20.1608
19.9942 0 -22.8349
32.4508 0 -16.287
-4.85273 0 8.9586
27.5038 0 -58.4585
-1.83319 0 -1.94405
17.8127 0 -7.88473
-64.9865 0 -34.6034
88.1246 0 59.8238
2.08264 0 37.1346
-3.44944 0 -2.03181
-16.9366 0 -0.239248
-108.218 0 -52.3325
6.87384 0 -26.3802
-15.9731 0 -10.1508
6.24058 0 37.8831
20.5407 0 16.8946
5.28673 0 0.984111
-37.6045 0 24.3573
14.6979 0 -3.82789
-9.24764 0 -0.677364
11.6117 0 27.5334
29 0 0.21623
-16.5036 0 13.3539
-14.228 0 -80.3963
29.2945 0 46.7297
-12.0891 0 -10.7574
11.0705 0 -8.28898
-2.26345 0 -12.8453
2.33556 0 -13.9816
19.7966 0 1.36571
-13.5413 0 14.7826
5.92385 0 12.8396
-4.34063 0 8.67342
0.673011 0 8.87112
19.8216 0 48.8796
12.334 0 12.9039
21.23 0 -56.4808
-10.8263 0 18.2841
-19.1243 0 4.58932
-21.8605 0 43.9404
-8.00579 0 3.65628
8.77859 0 8.69003
-12.1999 0 -16.7803
5.08694 0 21.1827
-5.09653 0 13.8488
-0.704598 0 15.3766
-23.0228 0 -18.0966
17.0231 0 22.6236
-14.6487 0 -14.4691
-18.811 0 -52.1224
2.16979 0 5.88411
-29.6498 0 -9.51031
69.8419 0 1.06324
8.85421 0 -5.50754
-0.398148 0 3.6298
28.2074 0 -45.4905
12.9584 0 -4.33349
-4.42225 0 19.4836
-12.9876 0 14.2168
28.1521 0 -3.87466
119.554 0 -36.7146
-2.09056 0 -10.8428
-22.3484 0 -3.82386
-11.3586 0 31.8278
-17.3382 0 -8.8898
19.3058 0 -9.38725
-22.2633 0 -18.3961
63.2556 0 16.8043
-18.0433 0 -6.92746
30.2535 0 -2.05776
81.514 0 63.426
18.2612 0 -4.28855
-38.16 0 -6.13469
35.8315 0 -9.60307
6.75574 0 -4.30977
-7.01761 0 -10.0717
-1.09786 0 -2.72603
1.22203 0 6.10167
-14.1035 0 -14.7503
36.7056 0 -36.5946
30.0736 0 -22.0217
8.94694 0 19.1304
-17.7275 0 -14.7896
7.61782 0 53.9639
0.181097 0 3.68466
11.841 0 -0.871016
0.288482 0 -11.0078
-20.149 0 -9.76521
-14.1397 0 20.9269
-9.08671 0 -18.9343
13.5922 0 0.96365
0.750626 0 6.82267
-3.1265 0 1.67109
-8.45846 0 -23.749
-2.4458 0 -7.39854
-15.0063 0 12.5026
9.67376 0 -15.1599
-23.7273 0 -14.515
-23.9907 0 -5.51899
23.4009 0 32.1419
17.2191 0 8.23183
-21.3806 0 -3.58472
-24.2044 0 -18.5075
2.41454 0 -14.149
8.07253 0 -32.5215
0.990726 0 -4.83557
-16.628 0 4.68918
-1.82412 0 12.4088
12.4002 0 0.566885
-4.23744 0 8.08692
-26.4723 0 -72.9735
-68.0392 0 -0.476892
6.20404 0 -26.0216
-19.9682 0 8.6577
-77.6953 0 -25.4458
71.5945 0 60.2664
-102.28 0 77.9347
-11.3441 0 -97.8621
41.3059 0 56.3642
-45.6603 0 -46.9005
-4.97064 0 1.79718
-6.40838 0 9.05073
12.7238 0 -6.0082
-2.34627 0 -8.24466
-15.7308 0 8.75994
3.42288 0 5.91728
13.1599 0 8.42018
8.37757 0 -27.406
0.0236352 0 11.0816
-45.7497 0 -19.3146
11.1936 0 -4.01165
23.5427 0 14.2269
17.2378 0 -104.345
-14.1335 0 -17.146
-20.9426 0 -24.085
-19.7959 0 -13.8562
31.9633 0 -35.8336
-31.7424 0 -94.3979
-27.5252 0 52.5351
2.54806 0 11.6779
-8.28242 0 -0.2006
8.28361 0 -5.31911
13.7636 0 1.26992
-54.0649 0 25.9423
18.0834 0 6.00633
-2.15162 0 20.7651
-0.223161 0 32.9573
-13.4378 0 -38.4935
-10.5887 0 7.44175
3.0626 0 -17.1334
-57.5566 0 31.525
-26.9236 0 -7.00435
14.5107 0 0.195109
71.7425 0 -47.3988
2.45662 0 17.526
7.46276 0 14.8822
16.9432 0 71.0665
-2.30432 0 -76.4529
6.87985 0 17.0961
146.975 0 -55.4474
1.17701 0 -15.2321
-2.97618 0 4.76359
-14.7313 0 38.5003
13.0089 0 -21.1691
-10.1162 0 28.3305
12.8872 0 -4.096
3.731 0 8.14555
4.72457 0 6.22586
-12.8141 0 -0.34717
-50.1566 0 47.7922
11.8944 0 -41.1818
48.857 0 28.2643
-103.173 0 -120.503
-7.81651 0 -3.41997
-127.999 0 -15.8007
115.034 0 -33.4277
2.99745 0 -6.05547
-50.0951 0 69.1717
46.5462 0 2.17583
8.69192 0 -0.676945
-19.5215 0 -28.6398
11.9305 0 2.29745
-15.4054 0 -11.62
-13.9194 0 14.5025
2.89817 0 -8.80118
15.2904 0 8.64376
-2.43832 0 23.1688
-13.9461 0 -2.49063
0.517436 0 -3.99179
15.8601 0 3.28429
-14.627 0 -19.6781
-30.1316 0 6.60575
-9.96514 0 146.775
91.1471 0 4.08305
45.8118 0 -5.01699
15.6076 0 -7.00721
-18.0478 0 53.6879
5.44563 0 -13.4604
19.0959 0 13.1606
-4.12338 0 -18.3402
-20.1806 0 -18.6986
-1.28955 0 18.6992
-20.0419 0 -17.3259
-52.6274 0 35.5318
0.851407 0 -12.4541
53.401 0 -40.7095
-28.7272 0 -28.1808
17.0913 0 -5.85128
-9.39202 0 -7.16833
-7.38009 0 12.6488
16.4936 0 -10.9022
-10.251 0 13.9547
-30.9037 0 12.5139
-90.2986 0 42.8458
-9.16739 0 -10.506
-3.10777 0 -0.876976
2.16542 0 60.6168
-138.422 0 43.6097
-24.669 0 -8.88969
90.4627 0 -112.27
-3.62628 0 -10.693
64.7172 0 17.0937
4.1547 0 40.6563
42.1637 0 -43.2147
-13.5281 0 -0.736534
-53.3924 0 -2.37359
24.229 0 -4.32446
7.99778 0 17.2346
13.8859 0 8.83174
37.2776 0 -109.194
-24.6399 0 -22.6855
-12.4226 0 34.5754
64.7142 0 53.8361
-21.9656 0 1.20012
43.8301 0 38.8182
0.448823 0 9.9006
-81.5807 0 -3.39104
-62.2483 0 -14.5463
-5.41575 0 -19.4131
-11.0617 0 -13.0522
-3.43248 0 -7.0334
17.7247 0 30.7916
44.9016 0 -32.1499
-9.61324 0 -6.03613
-8.74207 0 -5.35018
5.91496 0 -20.8667
-7.78438 0 4.74626
-19.2336 0 19.7958
13.5888 0 5.65413
16.0887 0 11.6419
-61.8397 0 3.31741
-6.13989 0 12.6096
35.923 0 15.9642
-17.1318 0 1.49989
-1.37054 0 9.72224
-17.2798 0 -75.803
26.0023 0 -18.8018
10.0483 0 -1.92455
16.8874 0 66.5621
4.18051 0 13.7481
14.635 0 -35.359
-45.0429 0 -76.1629
9.56955 0 16.8802
4.06022 0 34.0274
24.812 0 -30.864
5.28517 0 19.4209
-32.8824 0 2.72756
8.12655 0 0.820747
28.5158 0 6.38227
-0.744656 0 -0.438653
-3.02216 0 53.313
9.96712 0 -25.9875
60.8807 0 -30.2655
57.1666 0 -20.7721
-3.04068 0 -15.1466
10.0091 0 -8.88051
16.1785 0 -14.8111
12.2183 0 -3.30645
-17.7086 0 -11.2133
9.09221 0 24.4733
-92.8283 0 104.716
-10.6222 0 31.3448
0.233237 0 9.76105
1.06109 0 -5.54054
24.0474 0 -15.5998
36.1491 0 22.2736
-24.3978 0 -14.4379
126.569 0 48.7955
0.853916 0 -28.5273
-54.3752 0 26.2451
-1.12782 0 5.60498
59.9886 0 116.882
94.9511 0 29.2427
1.20942 0 3.25901
-0.539426 0 4.13952
22.5422 0 -65.05
-6.958 0 38.0837
5.33072 0 -3.76514
-1.51582 0 18.4342
85.4911 0 -4.8872
0.248967 0 16.2007
31.669 0 -54.8725
-4.0854 0 -7.24725
-8.26116 0 18.0105
-37.1621 0 -37.4411
-17.3445 0 -11.1644
10.1585 0 16.0356
-64.9579 0 3.11336
74.4091 0 -14.0839
-14.152 0 -25.3541
-2.34282 0 6.57396
5.45042 0 18.3178
-49.8912 0 -60.6832
1.81656 0 -17.4831
-16.2803 0 -87.4123
10.582 0 78.6121
8.87071 0 10.0347
-41.0904 0 17.6147
-3.47352 0 7.23065
166.141 0 -23.1058
68.0052 0 12.4278
5.63462 0 -6.95249
5.94779 0 7.43705
-2.39888 0 12.3116
-26.3159 0 -1.92948
-14.212 0 17.2476
16.9627 0 -5.23899
13.5752 0 3.95954
-4.75236 0 -18.3574
1.37132 0 -2.72134
11.2035 0 6.24048
-24.0344 0 8.15809
-9.45465 0 19.1087
-11.0346 0 -0.658667
8.07274 0 9.35329
0.4144 0 -0.380741
7.43647 0 7.83209
14.1337 0 4.74413
15.0783 0 9.0786
-8.32127 0 1.57108
-34.4395 0 -7.20569
-10.725 0 12.373
-3.35508 0 -8.02667
-43.1496 0 -37.0556
29.3141 0 49.4197
-30.469 0 26.7024
15.3968 0 -4.90878
-10.0784 0 -70.7538
9.10573 0 17.1039
-7.68092 0 21.0017
10.342 0 -3.77263
-10.3575 0 -18.1731
-17.4681 0 12.6262
-5.60488 0 -23.4641
38.8429 0 2.30577
-14.8764 0 51.8905
-5.93925 0 6.94572
-48.6655 0 3.35027
44.3918 0 -11.1433
-0.895669 0 4.00026
-50.9987 0 43.2681
-29.8138 0 -11.3983
100.264 0 -50.4481
17.3136 0 58.62
12.5171 0 -4.60209
18.6099 0 7.00403
21.1143 0 14.8494
18.3606 0 7.27602
-35.995 0 -28.0303
40.6453 0 0.0516539
-6.34581 0 3.21052
5.52607 0 -4.15226
-40.1687 0 -14.7434
-22.8597 0 -73.9653
26.8669 0 56.9391
-36.2862 0 49.5488
22.1278 0 -61.1291
-1.0532 0 18.2944
-9.91281 0 -16.7568
53.9291 0 -157.26
-18.15 0 9.73451
-158.746 0 15.0683
-2.59479 0 -9.27643
-3.20674 0 -15.0614
-3.24311 0 3.42766
-15.0111 0 -33.0749
-5.74026 0 -8.02829
11.9054 0 -6.26745
34.6093 0 1.46952
-9.10348 0 -1.36282
7.00743 0 1.49869
-13.4344 0 -13.7428
1.54863 0 13.359
17.3409 0 -12.5183
-14.3791 0 3.82368
9.83599 0 1.81825
-10.2504 0 -1.43751
-18.6861 0 9.27887
4.95059 0 1.32726
-23.2137 0 -41.8321
2.53434 0 -4.92155
-2.32481 0 -6.42892
-10.2839 0 -9.97663
-8.29257 0 -9.37323
29.7714 0 -59.1919
-18.7024 0 -39.4265
-133.347 0 -45.5141
-4.92128 0 101.473
-10.604 0 -15.5302
-37.2872 0 5.66944
28.5214 0 -8.09886
4.50521 0 7.98731
1.11753 0 4.26311
12.2854 0 -16.0465
-11.3004 0 -6.99775