# vtk DataFile Version 3.0
SiWiRVisFile
ASCII
DATASET UNSTRUCTURED_GRID
POINTS 1600 DOUBLE
76.4088 100 72.7108
76.2756 100 73.8333
77.352 100 74.164
79.6119 100 73.6917
80.5247 100 74.2855
81.5344 100 74.7162
83.5271 100 74.4167
84.6293 100 74.7845
85.7511 100 75.3341
84.3579 100 73.7046
91.7295 100 72.1137
91.0936 100 71.0065
90.824 100 72.6821
90.0018 100 70.7037
87.6556 100 69.9965
90.4861 100 62.2609
91.7149 100 62.1834
93.3716 100 60.6435
90.3647 100 56.5167
95.7438 100 59.529
103.912 100 42.6711
106.113 100 43.1118
106.18 100 42.0168
107.182 100 42.5295
105.188 100 41.4773
110.456 100 42.6447
110.613 100 36.555
111.542 100 35.591
110.754 100 37.627
111.786 100 37.3753
112.862 100 37.2973
113.978 100 37.5763
112.61 100 35.7496
113.588 100 36.3395
113.905 100 42.8364
119.306 100 41.4842
117.305 100 42.516
118.321 100 42.0195
118.362 100 43.1161
120.574 100 42.6594
129.172 100 59.1113
134.128 100 56.5167
130.838 100 60.6746
132.631 100 63.0693
133.786 100 62.3885
136.022 100 70.3383
134.936 100 70.0806
134.235 100 72.6307
133.25 100 70.8645
133.147 100 71.937
140.223 100 73.6135
138.613 100 75.3458
139.815 100 74.8924
140.915 100 74.4716
142.854 100 74.7544
143.843 100 74.2741
144.814 100 73.733
147.123 100 74.1445
148.181 100 73.8222
148.088 100 72.6992
75.3324 100 74.4442
76.534 100 74.8579
78.4812 100 74.3709
79.6361 100 74.8454
80.6958 100 75.3453
82.5888 100 75.0369
83.6671 100 75.525
84.7266 100 75.8902
85.6134 100 76.5116
86.8686 100 76.472
88.0075 100 76.1183
91.9009 100 69.962
90.0582 100 71.9677
91.2895 100 67.4363
92.469 100 64.458
90.6804 100 69.8291
92.8882 100 61.9636
94.7725 100 60.4972
96.0005 100 60.666
98.081 100 60.3673
105.134 100 42.593
97.8362 100 48.9569
106.296 100 51.0681
110.704 100 40.6349
108.126 100 42.0008
109.416 100 42.8233
109.925 100 41.4932
109.613 100 40.3481
107.806 100 35.3346
111.675 100 38.5179
113.099 100 38.3701
116.803 100 35.368
114.407 100 39.7553
114.598 100 41.5509
115.18 100 42.9994
116.336 100 42.0149
113.698 100 40.691
118.399 100 50.4243
126.656 100 48.9569
119.352 100 42.6044
126.364 100 60.2243
128.296 100 60.7252
129.614 100 60.2623
132.138 100 61.6425
133.17 100 69.737
132.329 100 64.1299
132.994 100 67.2889
134.406 100 71.5252
132.085 100 70.2453
136.338 100 76.4666
137.833 100 76.1998
138.971 100 76.5941
139.777 100 75.947
140.772 100 75.6384
141.812 100 75.1192
143.801 100 75.3492
144.845 100 74.854
145.997 100 74.4078
147.978 100 74.8247
149.148 100 74.4263
75.655 100 75.5398
76.7738 100 75.9397
77.7454 100 75.2065
78.7377 100 75.5752
79.7765 100 76.1645
81.8262 100 75.8072
82.8507 100 76.1621
83.9408 100 76.7008
84.8416 100 77.367
85.9528 100 77.532
87.2063 100 77.5642
88.0839 100 78.1484
89.5719 100 76.6073
91.4687 100 68.8764
92.1286 100 66.6351
93.2535 100 65.5805
92.9035 100 63.1584
93.8953 100 62.5539
94.9985 100 61.6819
97.1677 100 59.5174
98.3142 100 59.2988
104.437 100 52.2853
105.412 100 51.8596
106.298 100 52.4228
102.482 100 48.7241
107.418 100 51.0601
106.817 100 50.0401
105.316 100 50.0626
110.612 100 38.6636
111.221 100 39.6029
113.383 100 39.3947
114.333 100 38.6122
120.037 100 49.3659
117.01 100 50.5672
117.686 100 51.3534
120.961 100 49.9153
117.554 100 52.4096
118.523 100 51.9588
120.428 100 52.6482
125.603 100 59.1102
127.402 100 60.0254
129.704 100 61.3424
130.74 100 62.2125
131.437 100 63.1805
131.699 100 65.4045
131.982 100 66.9461
133.08 100 68.4192
134.127 100 76.8167
136.253 100 77.6272
137.332 100 77.2082
138.414 100 77.6022
139.679 100 77.4684
140.528 100 76.7716
141.679 100 76.2188
142.7 100 75.8297
144.715 100 76.1518
145.771 100 75.5512
146.75 100 75.1874
147.713 100 75.9247
148.82 100 75.5213
75.8403 100 76.6824
76.8212 100 77.0728
77.8006 100 76.3418
78.8664 100 76.8013
80.7845 100 76.4606
81.8959 100 76.9493
82.9314 100 77.2719
83.9828 100 78.0072
85.2742 100 78.3557
86.562 100 78.4466
87.6801 100 79.3651
89.6475 100 77.7257
88.5496 100 77.1018
92.8926 100 68.9619
92.2458 100 68.0014
93.2454 100 66.6954
94.7479 100 64.7664
93.6149 100 64.3616
94.5618 100 63.6952
95.1674 100 62.8469
96.2249 100 61.8465
99.1592 100 60.0046
104.491 100 51.1111
105.968 100 56.2061
105.335 100 52.9916
105.871 100 54.138
108.798 100 53.2998
110.105 100 53.4765
108.108 100 50.0318
110.992 100 41.5949
113.413 100 41.9141
116.273 100 51.236
115.463 100 51.9537
115.673 100 53.0211
118.144 100 53.2573
119.436 100 53.1065
119.765 100 54.2187
119.541 100 52.072
125.115 100 60.3037
127.894 100 62.0137
129.246 100 62.4506
130.226 100 63.4
131.179 100 64.3151
130.662 100 65.3438
131.037 100 66.5688
132.04 100 68.1346
132.301 100 69.2412
135.367 100 76.763
135.595 100 78.8315
136.782 100 78.6277
137.966 100 78.6277
139.253 100 78.5052
140.519 100 78.3353
141.366 100 77.6116
142.551 100 77.022
143.61 100 76.499
145.624 100 76.8265
146.682 100 76.2766
147.667 100 77.0356
148.646 100 76.6719
75.8992 100 77.7926
77.0173 100 78.2459
77.899 100 77.4442
79.9999 100 77.2066
81.0242 100 77.6522
82.0665 100 78.0199
83.1375 100 78.8238
84.4141 100 79.0257
85.4792 100 79.4935
86.4727 100 79.5187
87.1393 100 80.4762
89.9732 100 78.9631
90.979 100 76.9265
94.3499 100 67.0173
93.2949 100 67.8553
95.5471 100 65.4926
96.4039 100 64.6395
95.6369 100 63.8762
96.4956 100 63.0425
97.5218 100 62.4291
97.1031 100 61.2223
103.069 100 59.7266
105.369 100 55.3789
107.204 100 54.138
107.261 100 53.0519
108.307 100 54.2776
109.433 100 54.2106
110.237 100 54.9585
108.318 100 52.3586
111.394 100 43.7815
113.077 100 43.7141
116.572 100 52.2907
113.999 100 54.6573
114.627 100 53.8517
116.011 100 54.408
116.902 100 53.3287
117.174 100 54.3537
117.873 100 55.4691
121.381 100 59.3811
127.26 100 61.1432
126.801 100 62.069
127.418 100 63.0296
129.043 100 63.7355
130.124 100 64.4668
128.803 100 65.7299
130.912 100 68.6818
130.032 100 67.4394
134.653 100 77.8029
134.535 100 79.2457
137.316 100 80.6538
137.456 100 79.6169
138.686 100 79.4642
140.016 100 79.4029
141.58 100 78.7159
142.593 100 78.2474
143.529 100 77.6151
144.531 100 77.2404
146.59 100 77.3979
147.507 100 78.1191
148.588 100 77.7748
75.8728 100 78.8257
77.0237 100 79.2912
78.1013 100 78.6268
78.9077 100 77.8708
79.9783 100 78.3799
80.9979 100 78.7901
82.0167 100 79.2029
82.7425 100 80.007
83.8135 100 80.1005
84.8317 100 80.3501
85.9849 100 80.5781
88.8048 100 79.3367
90.8332 100 80.077
89.5257 100 75.4776
91.332 100 75.1292
94.4322 100 65.8437
96.6104 100 65.8861
97.5596 100 65.208
97.3007 100 64.1137
98.1354 100 63.5
98.2541 100 61.4526
101.059 100 60.9736
103.725 100 57.9389
104.749 100 57.6486
106.617 100 55.1341
107.743 100 55.3784
108.264 100 56.412
108.872 100 55.3461
111.633 100 54.9775
111.095 100 52.9349
114.728 100 52.6788
112.765 100 55.1391
115.242 100 55.1283
115.716 100 56.227
116.566 100 55.3655
118.951 100 55.3577
119.65 100 56.5302
120.77 100 58.3072
123.506 100 61.0355
125.985 100 61.3977
126.311 100 63.0551
128.327 100 64.5543
127.504 100 65.4251
127.871 100 66.5254
129.88 100 66.0386
133.071 100 74.7483
134.829 100 74.4622
133.799 100 80.1299
136.457 100 79.8802
138.403 100 80.4626
139.531 100 80.3478
140.65 100 80.3141
141.628 100 79.8684
142.554 100 79.3252
143.547 100 78.7778
144.547 100 78.4785
145.588 100 77.8978
146.469 100 78.7103
147.478 100 79.186
148.584 100 78.8378
74.7762 100 79.4168
75.8547 100 79.8848
78.0959 100 79.7511
79.0277 100 79.1418
80.2456 100 79.6736
79.9817 100 81.7249
81.8898 100 80.7298
82.968 100 80.9859
83.9889 100 81.4607
85.243 100 81.4341
86.4892 100 81.5728
89.5293 100 80.0518
91.2288 100 81.3677
90.4563 100 75.9394
95.3281 100 67.8846
95.5805 100 66.6302
97.1532 100 67.5627
98.6603 100 65.7136
98.474 100 64.5693
98.6011 100 62.5637
99.6737 100 61.1925
102.139 100 60.3283
103.945 100 58.9837
107.011 100 56.2096
108.939 100 57.2407
109.889 100 55.9757
109.272 100 59.5361
110.986 100 55.7528
108.45 100 60.3446
109.254 100 61.0165
115.173 100 60.4042
115.928 100 59.4676
114.237 100 55.7858
114.779 100 59.3415
114.95 100 57.0213
116.045 100 57.3063
117.262 100 56.3596
120.06 100 59.1737
122.164 100 60.1709
124.826 100 61.4178
125.478 100 62.3981
126.735 100 64.0186
126.232 100 65.3785
126.993 100 67.4675
128.997 100 66.7301
129.193 100 68.2288
134.345 100 75.4881
131.803 100 81.8269
135.345 100 80.0933
138.065 100 81.5198
139.263 100 81.3275
140.366 100 81.3287
141.565 100 80.8962
142.672 100 80.4597
144.593 100 80.7982
144.589 100 79.5493
145.45 100 79.0283
146.591 100 79.8173
148.668 100 79.8967
149.692 100 79.3813
74.931 100 80.5384
76.045 100 81.0011
77.0276 100 80.4218
78.0244 100 80.861
79.1392 100 80.3314
78.8808 100 81.4193
80.9552 100 81.2951
82.0383 100 81.8065
83.2145 100 82.248
84.6942 100 82.4144
85.8729 100 82.6614
87.2427 100 82.6516
88.2798 100 80.3815
88.0207 100 81.4432
88.3065 100 82.5067
91.8705 100 80.2692
96.7105 100 68.5881
97.7816 100 66.3754
100.846 100 65.0171
99.6278 100 64.8405
99.2644 100 63.6525
99.6916 100 62.2442
104.022 100 60.2722
106.452 100 57.2118
107.466 100 57.2501
108.955 100 58.3625
107.772 100 58.369
105.93 100 61.0336
107.433 100 61.4219
109.518 100 62.9639
115.256 100 62.0266
118.253 100 61.0686
119.241 100 61.6679
116.134 100 58.4083
114.889 100 58.231
117.25 100 57.5623
118.472 100 56.8429
120.726 100 60.2893
124.006 100 62.4917
125.335 100 63.7548
124.712 100 64.7761
125.16 100 65.9581
126.698 100 66.3341
128.231 100 67.5819
132.276 100 80.7523
136.04 100 82.1261
137.049 100 81.7849
136.239 100 80.9306
137.159 100 82.9114
138.201 100 82.8609
139.279 100 82.4761
141.324 100 82.229
142.457 100 81.6341
143.477 100 81.2901
145.423 100 81.7689
145.577 100 80.2982
146.455 100 80.9762
147.565 100 80.4404
148.491 100 80.9624
149.587 100 80.508
75.1704 100 81.6781
76.1239 100 82.0377
77.1143 100 81.5685
78.2065 100 82.2162
79.2308 100 84.0844
77.7843 100 84.7229
79.2489 100 82.6889
80.7827 100 82.4192
81.8293 100 82.87
81.0818 100 83.5781
82.9623 100 83.3072
85.2962 100 83.7317
86.4978 100 83.5921
87.757 100 83.7507
89.1616 100 83.2335
91.1426 100 78.972
97.7295 100 69.5538
97.9606 100 68.3628
99.8652 100 65.9069
100.723 100 66.9449
[...]
POINT_DATA 1600
SCALARS mass double
LOOKUP_TABLE default
1
1
1
1
1
1
1
1
1
1
1
1
1
1
1
1
1
1
1
1
1
1
1
1
1
1
1
1
1
1
1
1
1
1
1
1
1
1
1
1
1
1
1
1
1
1
1
1
1
1
1
1
1
1
1
1
1
1
1
1
1
1
1
1
1
1
1
1
1
1
1
1
1
1
1
1
1
1
1
1
1
1
1
1
1
1
1
1
1
1
1
1
1
1
1
1
1
1
1
1
1
1
1
1
1
1
1
1
1
1
1
1
1
1
1
1
1
1
1
1
1
1
1
1
1
1
1
1
1
1
1
1
1
1
1
1
1
1
1
1
1
1
1
1
1
1
1
1
1
1
1
1
1
1
1
1
1
1
1
1
1
1
1
1
1
1
1
1
1
1
1
1
1
1
1
1
1
1
1
1
1
1
1
1
1
1
1
1
1
1
1
1
1
1
1
1
1
1
1
1
1
1
1
1
1
1
1
1
1
1
1
1
1
1
1
1
1
1
1
1
1
1
1
1
1
1
1
1
1
1
1
1
1
1
1
1
1
1
1
1
1
1
1
1
1
1
1
1
1
1
1
1
1
1
1
1
1
1
1
1
1
1
1
1
1
1
1
1
1
1
1
1
1
1
1
1
1
1
1
1
1
1
1
1
1
1
1
1
1
1
1
1
1
1
1
1
1
1
1
1
1
1
1
1
1
1
1
1
1
1
1
1
1
1
1
1
1
1
1
1
1
1
1
1
1
1
1
1
1
1
1
1
1
1
1
1
1
1
1
1
1
1
1
1
1
1
1
1
1
1
1
1
1
1
1
1
1
1
1
1
1
1
1
1
1
1
1
1
1
1
1
1
1
1
1
1
1
1
1
1
1
1
1
1
1
1
1
1
1
1
1
1
1
1
1
1
1
1
1
1
1
1
1
1
1
1
1
1
1
1
1
1
1
1
1
1
1
1
1
1
1
1
1
1
1
1
1
1
1
1
1
1
1
1
1
1
1
1
1
1
1
1
1
1
1
1
1
1
1
1
1
1
1
1
1
1
1
1
1
1
1
1
1
1
1
1
1
1
1
1
1
1
1
1
1
1
1
1
1
1
1
1
1
1
1
1
1
1
1
1
1
1
1
1
1
1
1
1
1
1
1
1
1
1
1
1
1
1
1
1
1
1
1
1
1
1
1
1
1
1
1
1
1
1
1
1
1
1
1
1
1
1
1
1
1
1
1
1
1
1
1
1
1
1
1
1
1
1
1
1
1
1
1
1
1
1
1
1
1
1
1
1
1
1
1
1
1
1
1
1
1
1
1
1
1
1
1
1
1
1
1
1
1
1
1
1
1
1
1
1
1
1
1
1
1
1
1
1
1
1
1
1
1
1
1
1
1
1
1
1
1
1
1
1
1
1
1
1
1
1
1
1
1
1
1
1
1
1
1
1
1
1
1
1
1
1
1
1
1
1
1
1
1
1
1
1
1
1
1
1
1
1
1
1
1
1
1
1
1
1
1
1
1
1
1
1
1
1
1
1
1
1
1
1
1
1
1
1
1
1
1
1
1
1
1
1
1
1
1
1
1
1
1
1
1
1
1
1
1
1
1
1
1
1
1
1
1
1
1
1
1
1
1
1
1
1
1
1
1
1
1
1
1
1
1
1
1
1
1
1
1
1
1
1
1
1
1
1
1
1
1
1
1
1
1
1
1
1
1
1
1
1
1
1
1
1
1
1
1
1
1
1
1
1
1
1
1
1
1
1
1
1
1
1
1
1
1
1
1
1
1
1
1
1
1
1
1
1
1
1
1
1
1
1
1
1
1
1
1
1
1
1
1
1
1
1
1
1
1
1
1
1
1
1
1
1
1
1
1
1
1
1
1
1
1
1
1
1
1
1
1
1
1
1
1
1
1
1
1
1
1
1
1
1
1
1
1
1
1
1
1
1
1
1
1
1
1
1
1
1
1
1
1
1
1
1
1
1
1
1
1
1
1
1
1
1
1
1
1
1
1
1
1
1
1
1
1
1
1
1
1
1
1
1
1
1
1
1
1
1
1
1
1
1
1
1
1
1
1
1
1
1
1
1
1
1
1
1
1
1
1
1
1
1
1
1
1
1
1
1
1
1
1
1
1
1
1
1
1
1
1
1
1
1
1
1
1
1
1
1
1
1
1
1
1
1
1
1
1
1
1
1
1
1
1
1
1
1
1
1
1
1
1
1
1
1
1
1
1
1
1
1
1
1
1
1
1
1
1
1
1
1
1
1
1
1
1
1
1
1
1
1
1
1
1
1
1
1
1
1
1
1
1
1
1
1
1
1
1
1
1
1
1
1
1
1
1
1
1
1
1
1
1
1
1
1
1
1
1
1
1
1
1
1
1
1
1
1
1
1
1
1
1
1
1
1
1
1
1
1
1
1
1
1
1
1
1
1
1
1
1
1
1
1
1
1
1
1
1
1
1
1
1
1
1
1
1
1
1
1
1
1
1
1
1
1
1
1
1
1
1
1
1
1
1
1
1
1
1
1
1
1
1
1
1
1
1
1
1
1
1
1
1
1
1
1
1
1
1
1
1
1
1
1
1
1
1
1
1
1
1
1
1
1
1
1
1
1
1
1
1
1
1
1
1
1
1
1
1
1
1
1
1
1
1
1
1
1
1
1
1
1
1
1
1
1
1
1
1
1
1
1
1
1
1
1
1
1
1
1
1
1
1
1
1
1
1
1
1
1
1
1
1
1
1
1
1
1
1
1
1
1
1
1
1
1
1
1
1
1
1
1
1
1
1
1
1
1
1
1
1
1
1
1
1
1
1
1
1
1
1
1
1
1
1
1
1
1
1
1
1
1
1
1
1
1
1
1
1
1
1
1
1
1
1
1
1
1
1
1
1
1
1
1
1
1
1
1
1
1
1
1
1
1
1
1
1
1
1
1
1
1
1
1
1
1
1
1
1
1
1
1
1
1
1
1
1
1
1
1
1
1
1
1
1
1
1
1
1
1
1
1
1
1
1
1
1
1
1
1
1
1
1
1
1
1
1
1
1
1
1
1
1
1
1
1
1
1
1
1
1
1
1
1
1
1
1
1
1
1
1
1
1
1
1
1
1
1
1
1
1
1
1
1
1
1
1
1
1
1
1
1
1
1
1
1
1
1
1
1
1
1
1
1
1
1
1
1
1
1
1
1
1
1
1
1
1
1
1
1
1
1
1
1
1
1
1
1
1
1
1
1
1
1
1
1
1
1
1
1
1
1
1
1
1
1
1
1
1
1
1
1
1
1
1
1
1
1
1
1
1
1
1
1
1
1
1
1
1
1
1
1
1
1
1
1
1
1
1
1
1
1
1
1
1
1
1
1
1
1
1
1
1
1
1
1
1
1
1
1
1
1
1
1
1
1
1
1
1
1
1
1
1
1
1
1
1
1
1
1
1
1
1
1
1
1
1
1
1
1
1
1
1
1
1
1
1
1
1
1
1
1
1
1
1
1
1
1
1
1
1
1
1
1
1
1
1
1
1
1
1
1
1
1
1
1
1
1
1
1
1
1
1
1
1
1
1
1
1
1
1
1
1
1
1
1
1
1
1
1
1
1
1
1
1
1
1
1
1
1
1
1
1
1
1
1
1
1
1
1
VECTORS force double
0.655893 0 5.31671
-7.31086 0 -33.3657
19.791 0 -15.5687
-19.934 0 7.18976
34.2393 0 -38.2338
36.2704 0 -20.5309
-1.92792 0 11.2857
-6.42809 0 10.4762
-17.8951 0 12.4048
7.02114 0 -7.4133
12.5556 0 -24.7289
-0.433568 0 -2.76597
11.4422 0 41.0926
1.28958 0 16.7996
0.214508 0 0.064657
12.1341 0 -0.780027
3.34843 0 2.01589
6.2005 0 8.67128
0 0 0
3.44992 0 15.6417
14.1243 0 -2.2841
13.2853 0 4.46745
-9.00112 0 -4.46514
-26.4315 0 13.459
1.06643 0 2.14267
39.8873 0 -21.7812
11.902 0 -19.5716
-23.9351 0 7.58368
-11.7519 0 -12.4782
6.79053 0 -4.08536
26.8774 0 -18.778
-21.4038 0 -13.7462
21.3583 0 11.426
-8.43973 0 18.328
28.9069 0 44.7197
0.887431 0 2.50518
23.4996 0 10.3707
5.76654 0 -2.90767
-11.366 0 3.10706
-14.2433 0 -2.17116
3.02754 0 13.5806
0 0 0
-17.9523 0 8.89603
-4.09373 0 -15.2845
-10.769 0 4.75369
1.09363 0 0.957153
-6.84124 0 4.39208
-9.96608 0 -4.39387
2.35374 0 -23.0144
17.2899 0 21.3431
-7.13333 0 5.62798
19.7925 0 17.8905
12.3278 0 -36.2879
-9.19018 0 18.2003
-0.84747 0 -10.9196
11.586 0 -16.7524
11.0252 0 5.09899
-17.8359 0 -7.27875
23.3781 0 -72.5539
-0.788358 0 4.41929
14.547 0 8.18589
-5.54911 0 43.9836
18.5606 0 9.16871
-42.7024 0 31.8345
-37.8081 0 56.9582
28.9238 0 2.8869
47.582 0 -33.5959
-8.1773 0 -1.84803
12.8176 0 -14.2119
-7.51088 0 7.70338
-5.56298 0 6.94614
-16.4443 0 -6.72835
-24.3999 0 -47.9989
4.83184 0 0.189733
15.3754 0 -1.37004
26.8786 0 -0.742718
0.703544 0 9.43316
13.0199 0 8.64339
-2.81634 0 10.376
-16.5816 0 2.47407
-6.07309 0 -5.14017
0 0 0
-12.126 0 5.84905
-36.4812 0 -111.503
19.6898 0 -6.00394
-37.4301 0 -4.27226
-20.3492 0 0.280672
7.44137 0 10.3003
0 0 0
21.3466 0 -10.4619
3.52037 0 -25.6766
0 0 0
7.42623 0 7.75558
-20.1012 0 3.89276
-9.54085 0 -9.54425
-15.4739 0 -2.41279
9.23057 0 2.3475
-12.5847 0 13.6706
0 0 0
4.53938 0 -5.35485
-47.4944 0 21.5928
8.07405 0 6.0469
-3.22664 0 -19.7304
-5.99716 0 8.65075
93.5824 0 54.831
-22.3369 0 6.29636
14.8223 0 19.2501
-16.7311 0 -8.63547
4.82223 0 67.5927
98.7628 0 -10.7904
12.9572 0 5.81451
-60.0217 0 31.217
-12.4208 0 11.8857
29.1017 0 -37.5827
-5.62716 0 7.24909
4.60013 0 39.7302
3.58144 0 12.6403
-24.4978 0 -3.39479
-17.0803 0 77.9866
-18.1323 0 6.27277
9.83054 0 7.47129
-12.1264 0 0.759878
-52.7185 0 1.35527
36.8091 0 20.3137
-44.2734 0 -63.9947
-46.159 0 13.0397
-31.425 0 43.0753
-16.0819 0 -3.7124
15.3389 0 -39.7494
34.645 0 -12.8365
-30.6707 0 -38.6604
33.277 0 33.8498
-2.75312 0 2.88553
8.56982 0 4.33437
0.298723 0 13.0675
9.52971 0 -15.3278
6.73491 0 -1.00208
8.32534 0 7.30539
9.68245 0 0.180142
7.86713 0 12.2099
-11.8345 0 -12.6665
-20.341 0 5.10381
-8.16057 0 -46.0513
41.7825 0 16.3324
0 0 0
2.051 0 -12.5102
7.54932 0 14.9771
5.43885 0 16.1398
-28.2415 0 47.3924
-0.28564 0 -1.211
4.21254 0 24.3962
-18.2424 0 19.7513
-19.4174 0 -10.4236
69.2502 0 -128.177
-17.3403 0 -24.0383
18.5118 0 11.0088
82.5202 0 6.09036
0.948574 0 27.5627
37.7421 0 16.7209
1.97304 0 19.6636
36.6797 0 -2.22208
8.20964 0 25.712
-5.36576 0 7.8078
-1.49064 0 7.63541
46.0723 0 -1.54492
53.1257 0 31.1359
15.2414 0 14.5256
10.7733 0 -5.53715
-6.77923 0 -7.64468
-8.19111 0 5.38605
14.8739 0 -4.63241
-8.01804 0 9.62647
23.4216 0 -5.74084
1.66466 0 37.8152
16.5247 0 16.4078
-1.55199 0 -25.9632
-53.7351 0 26.5462
74.8268 0 -7.4806
19.3103 0 -13.7183
-2.81499 0 13.3779
-24.3327 0 -30.7745
43.024 0 20.3929
12.1685 0 -3.18147
-8.07021 0 -28.9348
74.7164 0 10.2205
-19.3302 0 -38.5567
27.3976 0 16.2567
-28.617 0 1.08126
5.0677 0 36.6182
-6.33469 0 1.43667
-12.8759 0 4.83747
-4.52823 0 5.55728
3.16377 0 10.6905
-14.6074 0 -10.6881
-30.4976 0 8.35582
10.8118 0 10.5255
-12.1984 0 -9.62225
5.77006 0 4.84661
-56.2809 0 19.9496
32.5765 0 -52.7003
-25.5569 0 18.0171
4.94765 0 19.1743
16.3583 0 8.61733
4.21817 0 53.0832
2.19475 0 4.73271
11.3361 0 5.62346
23.6665 0 22.026
79.4312 0 -92.7197
-18.6375 0 10.6593
50.8962 0 120.105
-7.77788 0 -54.9082
-78.2708 0 72.642
38.0707 0 -43.1447
118.475 0 62.5735
33.4439 0 44.0527
-29.7521 0 60.8561
-7.55759 0 -3.59723
45.1405 0 -63.2761
18.8675 0 3.23298
32.2621 0 8.51519
5.81551 0 3.6788
8.41452 0 -31.1096
31.7457 0 -5.23085
20.5542 0 28.5884
-95.7376 0 -47.9854
-20.6968 0 -14.4904
-91.5236 0 -134.672
-97.333 0 43.3286
10.189 0 3.47374
3.76998 0 15.3424
-4.46031 0 -10.5143
-0.57335 0 -2.89074
-23.2983 0 1.89897
11.4858 0 -16.325
-1.85777 0 -2.85926
5.36681 0 -2.8325
1.35669 0 -38.0068
-19.4478 0 23.7918
-49.7128 0 9.7807
35.3462 0 -37.3092
21.0196 0 -57.6817
-7.579 0 -60.9751
-12.9124 0 13.0268
-27.2208 0 49.7249
-15.8777 0 -1.95985
10.9549 0 35.3873
-0.533207 0 5.54845
-14.1093 0 30.8026
-122.334 0 -24.354
143.188 0 35.5706
-1.42152 0 0.0626114
-3.17504 0 5.64634
-19.9383 0 -21.75
4.95407 0 -3.51208
34.9761 0 -12.0623
16.005 0 8.06921
-32.3577 0 59.9256
0.872589 0 -7.53662
-2.86405 0 0.262113
-20.6756 0 -6.65127
26.52 0 -13.1307
2.80585 0 -11.5822
-28.6027 0 -74.5709
-12.4577 0 27.4621
9.32371 0 -19.5379
-2.42 0 27.9656
-100.002 0 107.215
4.62767 0 -27.4379
-29.2002 0 -26.6944
-1.73407 0 -5.68293
5.64848 0 -9.89006
-154.902 0 -22.7541
-46.0969 0 75.8074
66.8536 0 -68.507
30.9065 0 -45.8667
-9.4916 0 -17.8351
4.46844 0 43.9024
-20.0697 0 -18.327
-18.6678 0 -14.3472
-5.86347 0 -75.9559
-14.7705 0 76.1797
-1.44484 0 5.91456
29.7491 0 -18.5027
-74.8276 0 -31.6992
-37.4658 0 -87.8267
12.9411 0 -8.29935
-5.34529 0 -13.8784
130.096 0 -2.10051
-0.703712 0 -1.50352
-11.4306 0 51.5559
76.7325 0 -59.2475
23.7028 0 -36.4378
3.50569 0 -45.8676
0.449647 0 11.0991
-14.2851 0 -42.4638
-20.9855 0 21.8374
32.2397 0 7.34675
10.2597 0 13.1421
-5.6962 0 -12.2155
-12.9013 0 -27.5896
11.2725 0 33.7276
-2.19195 0 46.8225
-49.404 0 -18.5614
33.7594 0 33.4183
-15.4438 0 -6.93556
3.53407 0 -5.63377
5.21209 0 -17.9589
-29.0808 0 -108.411
-24.0823 0 -7.77362
33.5728 0 35.1158
-5.60813 0 -19.9169
-57.9718 0 -63.7033
-46.7085 0 -10.9809
-50.1092 0 -18.9366
-10.0332 0 9.20297
-2.57513 0 10.2393
4.3929 0 -6.04215
-6.06987 0 13.9217
3.28737 0 2.31528
22.029 0 -1.50589
-2.28121 0 22.0433
0.665251 0 -3.67103
-32.7114 0 -15.7327
34.8226 0 1.33806
-10.8009 0 3.4545
2.71364 0 -16.8362
-29.1744 0 -33.3982
8.01648 0 -6.38095
58.7425 0 -76.5779
-2.42223 0 2.34479
-145.856 0 16.4135
7.73086 0 -2.7565
-35.5722 0 34.0567
9.88015 0 -23.0228
7.11042 0 13.6652
22.4027 0 3.70416
-21.6059 0 6.38685
3.54327 0 9.7716
9.02982 0 4.897
-23.0044 0 -40.003
-8.19851 0 -6.60872
-13.5364 0 27.8471
-0.709326 0 7.834
-7.20283 0 -9.03401
-21.6305 0 39.1237
7.76815 0 2.98035
-3.63641 0 2.49833
1.24126 0 -12.7439
-52.8736 0 -19.8865
-5.93204 0 48.1813
3.33141 0 -57.59
-19.5049 0 -33.7231
10.6855 0 -66.1645
16.1935 0 8.06015
-29.4291 0 18.9049
18.0261 0 -79.9656
-13.0993 0 33.875
24.4179 0 -34.1422
27.7471 0 33.0503
-10.1646 0 2.15539
21.2341 0 0.803709
10.6561 0 34.131
-10.9555 0 5.90424
48.4385 0 9.83106
-14.4047 0 -12.7365
-64.751 0 -0.891948
2.60221 0 -24.6737
31.8695 0 118.874
23.9635 0 -13.4276
2.63595 0 -0.804097
-0.178717 0 9.41638
63.5242 0 53.1756
2.89075 0 -20.4765
58.5754 0 14.2682
-1.25166 0 -17.8458
-9.01842 0 -1.00475
7.04569 0 -9.82456
18.7541 0 -13.1741
10.0116 0 -3.39062
41.4824 0 -39.41
-7.33356 0 -49.2924
-12.5705 0 8.43369
13.9902 0 42.8271
54.3683 0 7.96376
8.71621 0 17.4823
-22.5922 0 16.2793
-8.98622 0 -1.25035
-54.5584 0 83.6935
-33.1852 0 -24.0542
31.947 0 37.3435
7.83402 0 -8.13739
-18.9544 0 24.0409
13.9702 0 -7.18821
10.6843 0 2.93366
-4.58542 0 10.4491
7.68536 0 -4.99096
-14.1127 0 23.5022
9.73322 0 20.631
-2.29879 0 4.95076
1.65342 0 7.28549
-28.2643 0 -19.4915
16.2702 0 34.9434
-13.1378 0 -26.946
7.28841 0 -14.5731
17.0411 0 95.7602
-2.1368 0 -14.0872
-3.28984 0 7.17679
-3.43702 0 -18.2986
4.21848 0 -10.1046
50.21 0 0.61192
-49.199 0 82.6883
5.88088 0 33.2915
12.6901 0 87.4837
-16.1162 0 8.69895
-8.71287 0 4.39798
-88.3128 0 89.7939
102.405 0 -16.95
-12.2055 0 17.5633
-14.7083 0 9.22159
-17.7712 0 0.0105755
16.084 0 8.45469
4.99629 0 -61.155
-16.0138 0 -9.63608
-47.465 0 -26.7608
-9.98386 0 -15.3805
101.244 0 16.6846
25.9498 0 2.33233
9.20271 0 -4.94645
-13.7993 0 -21.5039
1.70513 0 -0.421687
-5.05401 0 -10.7682
-35.138 0 7.75678
6.15533 0 -29.6093
-20.809 0 1.32111
18.9306 0 13.7057
40.4901 0 0.084901
13.7247 0 2.76442
-16.2429 0 0.83263
-11.5028 0 35.4861
-58.8125 0 31.6616
-3.72842 0 6.83766
-2.85135 0 49.0744
3.83772 0 9.86108
-114.238 0 -112.541
93.6815 0 9.38818
-9.02532 0 10.6039
24.552 0 -8.35532
6.20552 0 -28.9171
-8.26707 0 3.03221
17.786 0 -7.56698
10.5295 0 3.02943
-2.3767 0 10.9578
-25.8942 0 11.3166
-4.39677 0 -19.3445
20.3065 0 -12.8817
-78.093 0 -43.7184
-13.9294 0 -8.85328
-11.1371 0 -0.460968
36.8004 0 -20.3293
1.73493 0 -5.06026
5.75706 0 13.0018
35.5378 0 -60.2632
31.0757 0 28.4965
-7.27579 0 5.7221
35.3467 0 11.9138
-4.61216 0 -6.91903
-14.9938 0 -8.12766
-9.20588 0 32.3018
-32.843 0 -51.7089
25.4225 0 -25.8954
-7.67454 0 -0.652853
9.10151 0 -8.91172
-26.9237 0 14.2248
25.284 0 -25.9672
11.2911 0 -9.81318
-6.62463 0 -19.9305
16.2143 0 11.5315
-31.3271 0 -41.5051
7.93561 0 8.88398
-2.04815 0 -15.7514
-79.3143 0 -31.3455
76.8481 0 84.0248
13.284 0 -3.43041
-48.9917 0 37.5541
-16.5079 0 3.89378
2.57111 0 -4.23887
-45.2088 0 -48.7118
29.5366 0 34.5237
56.1261 0 -25.3569
-16.0906 0 27.5838
-12.4535 0 15.1713
11.8749 0 0.413135
6.21925 0 13.143
-9.12137 0 -2.19107
2.39291 0 -14.1773
-2.52975 0 33.2107
-44.9327 0 -2.86031
-56.8448 0 6.84272
2.95934 0 13.4389
-13.6319 0 -12.687
-10.7917 0 3.60073
13.7023 0 -19.0496
7.03122 0 -17.7048
-12.7748 0 0.293674
-22.6161 0 -21.626
19.3938 0 96.0204
7.13802 0 19.9815
-47.8571 0 -16.151
9.41275 0 26.3453
24.5711 0 2.93783
13.0916 0 14.0533
12.6686 0 7.55792
-2.91833 0 -31.2363
-16.5473 0 -12.0934
29.5997 0 30.958
-1.19465 0 -8.90766
49.6011 0 -15.0701
12.2444 0 10.8277
13.2854 0 -16.8762
-15.2309 0 24.4851
22.9128 0 -62.25
-0.485217 0 0.668886
9.61564 0 -1.61459
-9.20179 0 -10.7716
9.90401 0 -7.105
3.36183 0 31.697
-16.1932 0 21.6077
12.072 0 24.3749
16.0708 0 -29.1493
9.65834 0 -8.28866
-60.9824 0 13.7195
4.17771 0 4.56659
-10.4973 0 23.0416
-277.942 0 -193.573
-5.82313 0 4.27702
0.354903 0 4.32978
-17.6166 0 -18.2683
-27.7928 0 0.188853
-32.2405 0 40.1898
57.8729 0 9.36335
19.1351 0 0.904514
7.63009 0 -0.871172
6.43819 0 -10.0977
5.25902 0 10.0314
-5.63117 0 -2.45902
19.9327 0 23.2902
-16.5958 0 9.61514
12.0409 0 -38.2936
0.617525 0 13.7529
-3.08268 0 11.3709
-2.28771 0 10.2206
-20.8046 0 -56.8071
-87.1264 0 -16.6772
57.2731 0 0.905648
9.60904 0 8.69098
2.27302 0 17.818
-2.58385 0 21.4863
11.1775 0 5.72758
-10.881 0 -7.95396
51.0301 0 -31.5847
-71.72 0 32.2818
30.7389 0 -30.5082
17.9601 0 -92.4063
43.0205 0 19.6188
-12.5817 0 -20.3719
12.905 0 -2.09435
-57.1206 0 27.2273
-20.6655 0 41.3455
-5.42274 0 -21.4929
25.8494 0 -2.71533
26.8977 0 -9.4213
26.681 0 -7.97589
40.3317 0 -48.1132
-4.87359 0 30.8328
40.8058 0 -13.4908
-12.6937 0 -3.27994
-1.40062 0 1.39553
0.185231 0 -16.0331
-11.9981 0 53.3174
-27.4324 0 -12.8021
-4.34335 0 5.18114
39.0793 0 -30.6172
-118.107 0 15.2829
-1.82661 0 11.8072
1.36099 0 17.6909
5.61148 0 4.45597
12.3577 0 -18.4173
-11.5839 0 43.1223
19.3633 0 -96.7785
-0.184624 0 -2.09799
-27.2647 0 -74.4758
-11.7628 0 -33.4302
2.24911 0 -53.4121
11.0875 0 34.0547
54.5211 0 -12.6179
272.382 0 199.067
-14.3532 0 -1.07188
4.28931 0 20.8235
-8.84305 0 -1.32855
4.35093 0 -8.73952
-15.713 0 16.3907
-56.1461 0 -1.81477
-21.7486 0 56.302
42.7853 0 -13.9897
51.6382 0 -3.5932
-17.6335 0 -36.1567
-16.9982 0 -7.49005
-19.8638 0 -11.1104
16.6242 0 15.1236
-58.0426 0 -57.2307
-17.8101 0 36.0343
23.479 0 21.3156
15.8702 0 -92.2482
-25.608 0 3.78023
7.22794 0 24.5656
7.51346 0 -3.47811
28.0335 0 13.1684
14.9401 0 -47.5027
-34.9063 0 -22.3445
24.6825 0 9.15401
11.6367 0 17.7107
-0.372297 0 2.7586
92.5912 0 -18.613
-11.8138 0 1.93396
0.899835 0 21.9616
33.4301 0 30.553
5.3921 0 -10.0922
35.1663 0 -37.9554
19.487 0 -5.44681
-13.9918 0 10.3571
-9.48915 0 4.44753
8.41641 0 -7.79092
-59.3606 0 15.7333
-43.766 0 9.73538
-5.97502 0 -5.66834
2.60897 0 -4.4308
4.93584 0 12.029
-14.6566 0 60.1819
1.14371 0 12.1585
-16.8649 0 48.9305
2.21833 0 -34.5344
10.134 0 7.73661
21.1895 0 -0.239669
1.7089 0 -43.1878
-14.3484 0 14.7412
-3.27235 0 -11.4961
-8.01606 0 5.76026
-0.759076 0 1.78615
8.78459 0 11.4572
-46.6113 0 34.9307
27.0827 0 -35.154
0.656488 0 3.02139
12.9878 0 45.9872
-0.657354 0 0.443342
-3.32716 0 5.27926
5.44634 0 -45.3582
1.24307 0 23.3545
-22.5625 0 9.90921
2.70085 0 -13.3755
-2.87132 0 -5.45159
12.9566 0 1.40281
15.6416 0 -4.58458
-3.15278 0 25.9571
-12.643 0 -16.5897
-0.947661 0 5.6919
-9.3388 0 11.3959
105.51 0 -99.3431
46.9464 0 -2.68163
-79.5551 0 23.2344
6.34636 0 -6.47447
72.9844 0 71.6084
-141.935 0 31.3209
150.453 0 -33.8209
18.254 0 -17.6011
25.4993 0 8.85982
3.09187 0 -8.58544
-3.80116 0 18.473
-6.25833 0 -7.74701
5.81575 0 -16.2487
-25.93 0 74.9504
-15.7442 0 -36.6122
55.8546 0 -23.5659
-4.49503 0 -19.1571
22.007 0 -36.8414
-9.41015 0 13.3859
-16.1909 0 0.100937
-5.11779 0 -5.18328
-5.94263 0 -21.4087
24.1619 0 -17.4482
-20.1956 0 -9.38307
5.62618 0 2.37878
4.98938 0 33.883
6.83242 0 -5.24446
4.9213 0 9.89145
9.90605 0 3.01374
-4.6688 0 1.82313
34.6378 0 -45.6451
-15.8752 0 -26.2366
18.079 0 18.8023
-98.0924 0 -76.888
4.10575 0 -0.29259
51.8277 0 94.0995
1.71487 0 -11.7598
17.1254 0 -11.1262
94.3408 0 -36.3819
79.9858 0 -5.8443
11.6895 0 -68.7193
-2.11529 0 0.330566
33.5185 0 -58.5237
10.8336 0 101.561
11.9881 0 78.7352
37.1453 0 -10.551
7.61077 0 -6.68505
7.97695 0 -1.25282
-8.00918 0 -14.0686
-49.2977 0 3.11314
41.2333 0 20.9345
14.2939 0 -13.3284
-8.23654 0 -0.460812
-5.03685 0 0.998326
17.2123 0 18.427
1.04441 0 -20.7063
-5.02679 0 -0.0907632
-0.5031 0 -13.4112
-17.6632 0 11.6756
-73.97 0 120.354
-14.8788 0 -9.28439
-34.1027 0 -62.851
-43.1151 0 -19.1821
125.75 0 46.828
-1.84246 0 -12.3204
-11.9262 0 8.65771
-6.0593 0 -5.27603
-9.44095 0 78.245
-8.21488 0 6.80653
-43.9415 0 -1.41674
-6.78585 0 10.0982
-9.09827 0 -1.99488
2.41568 0 33.0499
2.85962 0 32.8822
-13.8048 0 -13.0452
7.77328 0 12.7627
1.92835 0 1.12983
5.19467 0 -5.33776
-7.3099 0 -7.01535
-17.4486 0 11.4117
2.97776 0 21.6147
-10.4753 0 5.48044
-22.7972 0 27.9667
-2.73679 0 -8.35032
-23.9296 0 14.0745
3.92463 0 -16.1051
8.23774 0 -9.01627
-0.561908 0 -14.0434
31.2741 0 34.6357
-9.32235 0 8.42872
18.6666 0 11.2345
3.17745 0 7.08626
-9.29655 0 -11.2414
-5.77999 0 16.797
-60.7938 0 -75.834
57.5664 0 49.9131
-0.565016 0 19.1718
-129.579 0 14.7342
-57.1609 0 16.9797
-13.9907 0 -39.2921
-6.20871 0 -11.9442
-52.1911 0 21.5115
23.1938 0 -6.46383
4.16018 0 -21.4698
-17.6615 0 9.77203
18.5192 0 -61.9494
-2.00901 0 -14.5901
-8.9042 0 -29.5012
-10.5406 0 -17.6792
3.43755 0 23.4126
-91.1151 0 -39.2173
97.1962 0 -30.7843
-6.65455 0 2.68254
22.9152 0 4.5021
-72.7623 0 -36.7094
13.6422 0 -1.84309
3.3415 0 -14.7973
16.1941 0 -33.7656
2.84467 0 21.9533
-73.7838 0 -76.5411
11.5246 0 9.86339
-67.0959 0 95.8275
-118.068 0 -12.688
94.1803 0 -87.8461
-10.4449 0 -36.8989
-3.6515 0 -3.04298
28.8116 0 -11.8423
-64.585 0 -41.6021
4.98334 0 -12.7567
-58.9526 0 6.75978
-12.9896 0 6.32101
-4.97817 0 11.3923
22.6558 0 10.4667
11.7139 0 -2.76017
-43.5852 0 -27.9096
32.3649 0 6.42947
21.3448 0 -3.45504
21.7536 0 -4.10195
-36.4118 0 53.4334
-0.482884 0 1.77543
3.15946 0 0.876166
-51.8172 0 -10.0037
-12.2241 0 -11.4256
-64.9236 0 -21.6573
-4.70884 0 15.4877
4.30205 0 18.857
-11.6597 0 -64.411
-20.5088 0 -28.101
-31.9833 0 23.0802
-2.53168 0 -4.8465
-16.1902 0 2.03133
-8.49412 0 -7.35914
0.00783261 0 16.5761
-13.6067 0 7.63808
-2.55412 0 -8.7763
4.25688 0 -8.91906
17.2967 0 6.18577
-21.6417 0 0.651005
-1.51967 0 7.00647
3.72525 0 30.0702
-8.40118 0 -5.84372
7.13075 0 20.8624
-12.4142 0 -22.5971
-5.67278 0 29.3565
0.00743797 0 -11.8511
-9.98305 0 3.85111
-21.8621 0 43.6428
-54.1177 0 -44.4767
11.6679 0 44.2675
-10.1662 0 -3.29389
-19.6987 0 96.4278
-4.48658 0 2.24168
-19.1065 0 7.16158
-6.94287 0 -13.4703
26.7472 0 -25.9964
75.686 0 60.3493
83.8351 0 -6.73706
-2.5548 0 39.1182
-85.142 0 -4.14645
84.5346 0 -17.2094
59.1346 0 -26.9436
-3.97155 0 7.66618
-34.406 0 -15.2645
48.2754 0 -9.11447
-35.818 0 -1.45462
-83.427 0 -57.6505
67.8657 0 80.2552
1.58943 0 1.29658
-8.19608 0 15.7167
42.5631 0 45.9016
9.67881 0 -19.2892
-8.07733 0 10.7818
-11.7215 0 -16.7904
-30.8291 0 15.954
-9.14612 0 4.63425
26.4545 0 23.7305
-33.0388 0 -3.62214
1.23007 0 6.55224
4.14907 0 3.46417
-2.93959 0 -13.2
-6.4068 0 -12.5869
-22.9183 0 1.69715
17.037 0 -14.9642
60.1106 0 48.0471
14.8898 0 -4.49098
-10.181 0 -10.9967
-51.4058 0 -23.7088
-23.5644 0 30.0692
36.5926 0 10.0273
-7.57745 0 18.2241
9.42359 0 -6.19702
-0.744572 0 4.57077
-0.2705 0 -11.8248
31.2106 0 32.5099
-62.1369 0 42.3773
-5.0363 0 -5.58237
4.44468 0 -93.9826
-1.59598 0 47.5601
10.0826 0 7.66589
-5.97829 0 0.737863
10.3921 0 9.03923
-32.6301 0 3.31194
21.8132 0 7.52661
6.4038 0 33.5193
-13.9122 0 -70.3709
52.3218 0 -18.5818