# vtk DataFile Version 3.0
SiWiRVisFile
ASCII
DATASET UNSTRUCTURED_GRID
POINTS 1600 DOUBLE
76.8855 100 73.8003
78.0211 100 74.2763
79.0324 100 74.8224
80.9458 100 74.6364
81.7791 100 75.2252
82.8756 100 75.4944
84.617 100 75.1275
85.5758 100 75.6633
86.7045 100 75.727
85.5478 100 74.5348
90.3119 100 75.5828
91.1687 100 74.7707
89.7197 100 74.2348
90.0672 100 73.0304
89.3576 100 71.7362
92.3769 100 67.0325
93.6402 100 67.6473
95.411 100 66.5723
93.8105 100 63.7385
97.3149 100 65.316
104.376 100 52.8258
103.92 100 55.5518
104.739 100 54.6735
106.327 100 53.5704
105.153 100 53.5998
107.412 100 53.5999
109.697 100 49.918
110.785 100 49.6716
110.407 100 50.8432
111.472 100 50.4262
113.021 100 50.4275
114.085 100 50.8436
113.707 100 49.6717
114.795 100 49.9182
117.08 100 53.5997
119.34 100 53.5999
118.166 100 53.5705
119.753 100 54.6735
120.572 100 55.5518
120.117 100 52.8257
127.175 100 65.3184
130.682 100 63.7385
129.081 100 66.5724
130.852 100 67.6475
132.116 100 67.0324
135.135 100 71.7361
134.426 100 73.0305
134.772 100 74.2341
133.324 100 74.7712
134.18 100 75.5823
138.945 100 74.5348
137.788 100 75.727
138.917 100 75.6633
139.875 100 75.1275
141.617 100 75.4944
142.713 100 75.2251
143.547 100 74.6364
145.46 100 74.8224
146.471 100 74.2763
147.607 100 73.8003
76.972 100 74.8793
78.1036 100 75.4085
80.0495 100 75.3456
80.988 100 75.8931
82.153 100 76.2765
83.8148 100 76.0447
84.8859 100 76.421
85.964 100 76.7336
87.1652 100 76.7176
88.2783 100 77.1402
89.3201 100 76.8173
92.3752 100 74.9212
91.0381 100 73.5772
91.679 100 72.1119
92.4206 100 70.7125
90.4887 100 71.8938
94.6876 100 67.3898
96.4829 100 65.99
97.4244 100 66.6983
99.8548 100 66.0408
103.889 100 54.0001
99.4379 100 59.5103
104.897 100 60.7109
110.055 100 53.8116
106.129 100 52.4659
108.287 100 54.6854
108.501 100 53.5017
109.545 100 52.7726
109.173 100 51.0967
111.409 100 51.4412
113.084 100 51.4417
115.32 100 51.096
114.948 100 52.7725
115.991 100 53.5018
116.205 100 54.6856
118.363 100 52.4659
114.437 100 53.8112
119.595 100 60.7114
125.055 100 59.5103
120.603 100 54.0001
124.638 100 66.0382
127.068 100 66.6967
128.01 100 65.9911
129.805 100 67.3896
134.004 100 71.8938
132.072 100 70.7112
132.814 100 72.1119
133.454 100 73.5781
132.117 100 74.9209
135.172 100 76.8176
136.214 100 77.1401
137.327 100 76.7176
138.528 100 76.7336
139.607 100 76.421
140.678 100 76.0447
142.339 100 76.2765
143.504 100 75.8931
144.443 100 75.3456
146.389 100 75.4085
147.52 100 74.8793
77.2041 100 76.0156
78.2301 100 76.5829
79.0662 100 75.9464
80.0604 100 76.5517
81.0962 100 77.0471
83.014 100 76.8054
84.0609 100 77.2529
85.2153 100 77.5327
86.3798 100 77.9036
87.5991 100 78.0564
88.734 100 78.2047
90.0745 100 78.0814
91.1505 100 77.6928
92.1714 100 73.8325
93.6485 100 71.216
94.3087 100 70.3207
94.5338 100 68.4596
95.5563 100 67.9984
96.339 100 67.1907
98.755 100 65.8478
100.174 100 64.9606
103.59 100 61.8965
105.792 100 61.3475
106.889 100 61.0637
106.339 100 57.8404
106.999 100 59.8
107.635 100 58.796
105.843 100 59.4885
110.576 100 52.783
111.662 100 52.4416
112.83 100 52.4424
113.916 100 52.7826
118.645 100 59.4718
116.853 100 58.7937
117.496 100 59.7924
118.155 100 57.8422
117.602 100 61.0685
118.706 100 61.345
120.898 100 61.8994
124.318 100 64.9606
125.741 100 65.8477
128.153 100 67.1908
128.937 100 67.9991
129.958 100 68.4594
130.183 100 70.3212
130.843 100 71.2166
132.32 100 73.832
133.342 100 77.6929
134.417 100 78.082
135.759 100 78.2048
136.893 100 78.0565
138.113 100 77.9038
139.277 100 77.5327
140.431 100 77.253
141.478 100 76.8055
143.396 100 77.0471
144.432 100 76.5517
145.426 100 75.9464
146.262 100 76.5829
147.288 100 76.0156
77.3467 100 77.2466
78.304 100 77.8344
79.2197 100 77.2421
80.1661 100 77.6104
82.1627 100 77.5246
83.272 100 77.9573
84.3296 100 78.4501
85.4053 100 78.5853
86.6541 100 78.9288
87.9958 100 79.1695
89.0576 100 79.4351
90.1188 100 79.496
90.9206 100 78.8588
93.1366 100 73.2295
92.8781 100 72.1084
94.8711 100 71.6639
95.3674 100 70.7033
95.2042 100 69.4698
96.2756 100 68.9007
97.001 100 68.061
98.4151 100 67.6415
100.98 100 66.4584
104.691 100 61.8701
105.284 100 63.8816
105.656 100 62.7974
106.556 100 62.1903
108.825 100 61.9895
110.154 100 61.8302
108.618 100 59.8052
111.328 100 53.4632
113.165 100 53.4628
115.878 100 59.8092
114.345 100 61.8203
115.664 100 61.9866
117.942 100 62.1913
118.838 100 62.7997
119.215 100 63.8823
119.799 100 61.8771
123.514 100 66.4579
126.075 100 67.641
127.488 100 68.0594
128.215 100 68.8976
129.285 100 69.4688
129.123 100 70.703
129.626 100 71.6613
131.614 100 72.1081
131.356 100 73.2297
133.571 100 78.8587
134.374 100 79.4953
135.434 100 79.4353
136.496 100 79.1696
137.838 100 78.9288
139.087 100 78.5852
140.163 100 78.45
141.22 100 77.9573
142.33 100 77.5246
144.326 100 77.6104
145.273 100 77.2421
146.188 100 77.8344
147.146 100 77.2466
77.1687 100 78.3211
78.1792 100 79.0141
79.1909 100 78.4935
81.2757 100 78.1645
82.283 100 78.6221
83.2422 100 79.0887
84.2756 100 79.5363
85.5168 100 79.6586
87.133 100 79.96
88.304 100 80.2866
89.1172 100 81.0405
91.1526 100 80.1115
92.0164 100 78.5226
94.0906 100 73.6956
93.9916 100 72.5131
95.9714 100 72.1833
96.2465 100 71.2308
96.3279 100 70.1089
97.3212 100 69.1611
98.3577 100 68.8592
99.1751 100 66.8738
102.735 100 67.1284
106.514 100 63.5423
107.349 100 62.9187
107.798 100 61.9449
108.432 100 63.4024
109.635 100 62.8778
110.616 100 63.5968
107.941 100 60.8083
111.454 100 55.0643
113.038 100 55.0634
116.547 100 60.8222
113.879 100 63.5975
114.859 100 62.8775
116.06 100 63.394
116.69 100 61.9496
117.149 100 62.916
117.979 100 63.548
121.758 100 67.1255
125.321 100 66.8686
126.136 100 68.8599
127.171 100 69.1623
128.163 100 70.1103
128.244 100 71.2329
128.526 100 72.1818
130.504 100 72.5125
130.404 100 73.6996
132.475 100 78.5227
133.341 100 80.1113
135.374 100 81.0407
136.188 100 80.2867
137.359 100 79.9602
138.976 100 79.6586
140.217 100 79.5363
141.25 100 79.0887
142.209 100 78.6222
143.217 100 78.1645
145.302 100 78.4935
146.313 100 79.0141
147.324 100 78.3212
77.1768 100 79.4264
78.1305 100 80.1592
79.2227 100 79.6718
80.2213 100 78.7417
81.3632 100 79.2513
82.474 100 79.8075
83.4493 100 80.2348
84.7488 100 80.5878
85.7725 100 80.7953
86.795 100 80.9958
87.9678 100 81.3299
90.1905 100 80.6931
92.1592 100 80.6297
92.9259 100 77.4787
93.7359 100 76.5301
95.064 100 72.7942
97.3361 100 72.7419
97.3253 100 71.5122
97.6762 100 70.4649
99.4827 100 69.7945
99.4894 100 68.5541
101.714 100 67.5031
103.706 100 66.6714
105.248 100 66.1616
105.361 100 64.9869
107.412 100 64.0848
108.406 100 64.5152
109.442 100 64.187
111.507 100 64.2453
111.212 100 62.3887
113.278 100 62.3924
112.983 100 64.2433
115.049 100 64.2031
116.08 100 64.5078
117.081 100 64.0858
119.118 100 64.9734
119.247 100 66.1597
120.786 100 66.6687
122.779 100 67.5023
125.002 100 68.5571
125.01 100 69.7922
126.815 100 70.4523
127.165 100 71.51
127.151 100 72.7388
129.435 100 72.7932
130.757 100 76.5304
131.566 100 77.4794
132.333 100 80.63
134.302 100 80.6931
136.525 100 81.3298
137.697 100 80.9959
138.72 100 80.7953
139.744 100 80.5878
141.043 100 80.2349
142.018 100 79.8076
143.129 100 79.2514
144.271 100 78.7417
145.27 100 79.6718
146.362 100 80.1592
147.316 100 79.4265
76.9676 100 80.4729
77.7925 100 81.218
79.4859 100 80.7884
80.2818 100 80.0145
81.3966 100 80.2788
82.3043 100 80.9072
83.9644 100 81.3935
85.0876 100 81.7082
86.229 100 81.8831
87.3885 100 82.2069
88.5145 100 82.2948
91.1323 100 81.2886
92.1374 100 81.7344
93.4949 100 78.4363
95.677 100 75.5129
96.3028 100 73.2361
97.608 100 74.3756
98.3331 100 71.9224
98.7287 100 70.8234
100.398 100 69.0434
100.422 100 67.7786
102.663 100 68.4757
104.717 100 67.0456
106.81 100 65.6386
107.925 100 65.5583
109.21 100 65.2417
110.011 100 66.7855
110.461 100 64.679
109.4 100 67.9238
110.579 100 68.4818
113.963 100 68.4954
115.126 100 67.9507
114.028 100 64.6795
114.492 100 66.7742
115.252 100 65.2548
116.567 100 65.5456
117.685 100 65.6239
119.771 100 67.046
121.827 100 68.4714
124.072 100 67.7792
124.093 100 69.0431
125.768 100 70.8254
126.16 100 71.9265
126.891 100 74.391
128.185 100 73.2347
128.819 100 75.5138
130.998 100 78.4376
132.357 100 81.7351
133.361 100 81.2883
135.978 100 82.2947
137.104 100 82.2069
138.263 100 81.8829
139.405 100 81.7081
140.528 100 81.3934
142.188 100 80.9073
143.096 100 80.2788
144.211 100 80.0145
145.006 100 80.7884
146.7 100 81.218
147.525 100 80.473
76.5938 100 81.7134
77.5511 100 82.2549
78.7636 100 81.6898
79.8251 100 82.1643
80.6176 100 80.9987
80.9231 100 82.1783
83.0437 100 82.309
84.2251 100 82.4057
85.4374 100 82.8183
86.6069 100 82.9966
87.883 100 83.1644
89.0102 100 83.2847
89.9379 100 81.7237
90.2419 100 83.117
90.8633 100 84.0565
93.2134 100 80.6242
96.8086 100 75.2468
98.3299 100 73.231
99.6783 100 72.133
99.7923 100 70.9853
100.593 100 70.1012
101.364 100 68.4812
103.784 100 67.9585
106.211 100 66.6716
107.815 100 66.7802
108.783 100 66.4842
108.286 100 67.7871
108.3 100 69.1766
109.461 100 69.3122
111.207 100 69.4479
113.313 100 69.3691
114.997 100 69.3307
116.054 100 69.1319
116.21 100 67.711
115.707 100 66.5054
116.719 100 66.7333
118.305 100 66.7001
120.704 100 67.9559
123.128 100 68.4807
123.899 100 70.0999
124.702 100 70.9842
124.815 100 72.1391
126.165 100 73.2324
127.685 100 75.2475
131.279 100 80.6205
133.629 100 84.056
134.251 100 83.1169
134.555 100 81.7239
135.482 100 83.2846
136.608 100 83.1645
137.886 100 82.9963
139.055 100 82.8183
140.267 100 82.4055
141.449 100 82.3091
143.569 100 82.1783
143.875 100 80.9988
144.667 100 82.1644
145.729 100 81.6899
146.941 100 82.2549
147.899 100 81.7135
76.6367 100 82.8414
77.6445 100 83.4249
78.5164 100 82.8105
79.3086 100 83.5271
80.603 100 83.4172
81.2439 100 84.4825
82.2489 100 83.2393
83.4665 100 83.3386
84.5134 100 83.5717
84.9183 100 84.7578
86.5585 100 84.0484
87.5629 100 84.282
88.6537 100 84.3525
89.709 100 84.1946
92.0981 100 84.0295
92.8091 100 79.3161
97.2022 100 76.383
97.843 100 75.547
99.5196 100 73.172
100.602 100 73.0887
[...]
POINT_DATA 1600
SCALARS mass double
LOOKUP_TABLE default
1
1
1
1
1
1
1
1
1
1
1
1
1
1
1
1
1
1
1
1
1
1
1
1
1
1
1
1
1
1
1
1
1
1
1
1
1
1
1
1
1
1
1
1
1
1
1
1
1
1
1
1
1
1
1
1
1
1
1
1
1
1
1
1
1
1
1
1
1
1
1
1
1
1
1
1
1
1
1
1
1
1
1
1
1
1
1
1
1
1
1
1
1
1
1
1
1
1
1
1
1
1
1
1
1
1
1
1
1
1
1
1
1
1
1
1
1
1
1
1
1
1
1
1
1
1
1
1
1
1
1
1
1
1
1
1
1
1
1
1
1
1
1
1
1
1
1
1
1
1
1
1
1
1
1
1
1
1
1
1
1
1
1
1
1
1
1
1
1
1
1
1
1
1
1
1
1
1
1
1
1
1
1
1
1
1
1
1
1
1
1
1
1
1
1
1
1
1
1
1
1
1
1
1
1
1
1
1
1
1
1
1
1
1
1
1
1
1
1
1
1
1
1
1
1
1
1
1
1
1
1
1
1
1
1
1
1
1
1
1
1
1
1
1
1
1
1
1
1
1
1
1
1
1
1
1
1
1
1
1
1
1
1
1
1
1
1
1
1
1
1
1
1
1
1
1
1
1
1
1
1
1
1
1
1
1
1
1
1
1
1
1
1
1
1
1
1
1
1
1
1
1
1
1
1
1
1
1
1
1
1
1
1
1
1
1
1
1
1
1
1
1
1
1
1
1
1
1
1
1
1
1
1
1
1
1
1
1
1
1
1
1
1
1
1
1
1
1
1
1
1
1
1
1
1
1
1
1
1
1
1
1
1
1
1
1
1
1
1
1
1
1
1
1
1
1
1
1
1
1
1
1
1
1
1
1
1
1
1
1
1
1
1
1
1
1
1
1
1
1
1
1
1
1
1
1
1
1
1
1
1
1
1
1
1
1
1
1
1
1
1
1
1
1
1
1
1
1
1
1
1
1
1
1
1
1
1
1
1
1
1
1
1
1
1
1
1
1
1
1
1
1
1
1
1
1
1
1
1
1
1
1
1
1
1
1
1
1
1
1
1
1
1
1
1
1
1
1
1
1
1
1
1
1
1
1
1
1
1
1
1
1
1
1
1
1
1
1
1
1
1
1
1
1
1
1
1
1
1
1
1
1
1
1
1
1
1
1
1
1
1
1
1
1
1
1
1
1
1
1
1
1
1
1
1
1
1
1
1
1
1
1
1
1
1
1
1
1
1
1
1
1
1
1
1
1
1
1
1
1
1
1
1
1
1
1
1
1
1
1
1
1
1
1
1
1
1
1
1
1
1
1
1
1
1
1
1
1
1
1
1
1
1
1
1
1
1
1
1
1
1
1
1
1
1
1
1
1
1
1
1
1
1
1
1
1
1
1
1
1
1
1
1
1
1
1
1
1
1
1
1
1
1
1
1
1
1
1
1
1
1
1
1
1
1
1
1
1
1
1
1
1
1
1
1
1
1
1
1
1
1
1
1
1
1
1
1
1
1
1
1
1
1
1
1
1
1
1
1
1
1
1
1
1
1
1
1
1
1
1
1
1
1
1
1
1
1
1
1
1
1
1
1
1
1
1
1
1
1
1
1
1
1
1
1
1
1
1
1
1
1
1
1
1
1
1
1
1
1
1
1
1
1
1
1
1
1
1
1
1
1
1
1
1
1
1
1
1
1
1
1
1
1
1
1
1
1
1
1
1
1
1
1
1
1
1
1
1
1
1
1
1
1
1
1
1
1
1
1
1
1
1
1
1
1
1
1
1
1
1
1
1
1
1
1
1
1
1
1
1
1
1
1
1
1
1
1
1
1
1
1
1
1
1
1
1
1
1
1
1
1
1
1
1
1
1
1
1
1
1
1
1
1
1
1
1
1
1
1
1
1
1
1
1
1
1
1
1
1
1
1
1
1
1
1
1
1
1
1
1
1
1
1
1
1
1
1
1
1
1
1
1
1
1
1
1
1
1
1
1
1
1
1
1
1
1
1
1
1
1
1
1
1
1
1
1
1
1
1
1
1
1
1
1
1
1
1
1
1
1
1
1
1
1
1
1
1
1
1
1
1
1
1
1
1
1
1
1
1
1
1
1
1
1
1
1
1
1
1
1
1
1
1
1
1
1
1
1
1
1
1
1
1
1
1
1
1
1
1
1
1
1
1
1
1
1
1
1
1
1
1
1
1
1
1
1
1
1
1
1
1
1
1
1
1
1
1
1
1
1
1
1
1
1
1
1
1
1
1
1
1
1
1
1
1
1
1
1
1
1
1
1
1
1
1
1
1
1
1
1
1
1
1
1
1
1
1
1
1
1
1
1
1
1
1
1
1
1
1
1
1
1
1
1
1
1
1
1
1
1
1
1
1
1
1
1
1
1
1
1
1
1
1
1
1
1
1
1
1
1
1
1
1
1
1
1
1
1
1
1
1
1
1
1
1
1
1
1
1
1
1
1
1
1
1
1
1
1
1
1
1
1
1
1
1
1
1
1
1
1
1
1
1
1
1
1
1
1
1
1
1
1
1
1
1
1
1
1
1
1
1
1
1
1
1
1
1
1
1
1
1
1
1
1
1
1
1
1
1
1
1
1
1
1
1
1
1
1
1
1
1
1
1
1
1
1
1
1
1
1
1
1
1
1
1
1
1
1
1
1
1
1
1
1
1
1
1
1
1
1
1
1
1
1
1
1
1
1
1
1
1
1
1
1
1
1
1
1
1
1
1
1
1
1
1
1
1
1
1
1
1
1
1
1
1
1
1
1
1
1
1
1
1
1
1
1
1
1
1
1
1
1
1
1
1
1
1
1
1
1
1
1
1
1
1
1
1
1
1
1
1
1
1
1
1
1
1
1
1
1
1
1
1
1
1
1
1
1
1
1
1
1
1
1
1
1
1
1
1
1
1
1
1
1
1
1
1
1
1
1
1
1
1
1
1
1
1
1
1
1
1
1
1
1
1
1
1
1
1
1
1
1
1
1
1
1
1
1
1
1
1
1
1
1
1
1
1
1
1
1
1
1
1
1
1
1
1
1
1
1
1
1
1
1
1
1
1
1
1
1
1
1
1
1
1
1
1
1
1
1
1
1
1
1
1
1
1
1
1
1
1
1
1
1
1
1
1
1
1
1
1
1
1
1
1
1
1
1
1
1
1
1
1
1
1
1
1
1
1
1
1
1
1
1
1
1
1
1
1
1
1
1
1
1
1
1
1
1
1
1
1
1
1
1
1
1
1
1
1
1
1
1
1
1
1
1
1
1
1
1
1
1
1
1
1
1
1
1
1
1
1
1
1
1
1
1
1
1
1
1
1
1
1
1
1
1
1
1
1
1
1
1
1
1
1
1
1
1
1
1
1
1
1
1
1
1
1
1
1
1
1
1
1
1
1
1
1
1
1
1
1
1
1
1
1
1
1
1
1
1
1
1
1
1
1
1
1
1
1
1
1
1
1
1
1
1
1
1
1
1
1
1
1
1
1
1
1
1
1
1
1
1
1
1
1
1
1
1
1
1
1
1
1
1
1
1
1
1
1
1
1
1
1
1
1
1
1
1
1
1
1
1
1
1
1
1
1
1
1
1
1
1
1
1
1
1
1
1
1
1
VECTORS force double
10.4782 0 -10.8639
-15.0468 0 9.60539
6.66491 0 -2.31224
-69.9141 0 -29.5519
109.632 0 9.86361
8.05062 0 -16.4598
-19.9185 0 20.4436
59.3834 0 -45.1632
-17.4387 0 -1.46908
7.19338 0 1.97322
2.7436 0 -9.71881
5.09032 0 -11.5215
16.4706 0 -7.00698
-2.45081 0 -6.09574
8.09358 0 6.39957
7.69535 0 3.64331
-15.6725 0 8.63843
17.7526 0 -6.90233
0 0 0
23.9342 0 -3.93288
-8.3751 0 5.44838
7.66441 0 -13.1504
7.65596 0 10.1162
-25.0146 0 0.549158
7.66389 0 11.1882
7.27836 0 6.20975
0.250139 0 18.242
-55.7574 0 -47.1735
-1.07266 0 -10.7868
59.8292 0 -23.1355
-59.455 0 -25.2055
1.23344 0 -10.7472
55.1514 0 -46.6775
-0.223256 0 18.2584
-7.09517 0 6.20498
-7.65931 0 11.175
24.93 0 0.552554
-7.65583 0 10.134
-7.66483 0 -13.1498
8.36511 0 5.45749
-23.2753 0 -3.04739
0 0 0
-17.6486 0 -6.93715
15.7162 0 8.65936
-7.68958 0 3.64171
-8.07846 0 6.39357
2.05798 0 -5.86752
-16.4851 0 -7.0088
-5.16495 0 -11.5699
-2.66569 0 -9.64476
-7.20508 0 1.9656
17.436 0 -1.47996
-59.3458 0 -45.1466
19.923 0 20.4556
-8.04982 0 -16.4648
-109.647 0 9.87367
69.9222 0 -29.5589
-6.6635 0 -2.31404
15.0462 0 9.60581
-10.4782 0 -10.8637
25.0484 0 24.3304
-9.78425 0 -4.66022
-17.4646 0 4.05776
-24.2596 0 48.8092
-120.35 0 -12.4953
28.1475 0 8.23493
-58.8311 0 57.2103
26.3161 0 -8.32713
0.656391 0 28.6573
-22.2544 0 11.5168
15.185 0 4.50832
-10.5272 0 1.32112
7.63589 0 12.3036
1.09748 0 1.16852
10.7551 0 14.0399
3.81188 0 14.2188
-9.2822 0 -31.4237
-22.8707 0 39.2376
-8.97414 0 2.30406
26.2564 0 -11.2176
2.52401 0 -19.122
0 0 0
-5.80691 0 2.55394
6.61886 0 -15.087
-3.81279 0 6.4409
-2.61433 0 -18.5921
22.6836 0 3.78914
-69.3914 0 10.1532
18.1487 0 -10.1922
-25.8111 0 24.0773
25.7369 0 26.4574
-18.1648 0 -10.2011
68.6896 0 10.1973
-22.761 0 3.78192
2.61116 0 -18.5931
3.80623 0 6.43854
-6.61424 0 -15.0762
8.42742 0 1.60231
0 0 0
-2.52381 0 -19.1309
-25.3298 0 -10.6629
8.8379 0 2.25589
22.1647 0 38.3755
9.31568 0 -31.5901
-3.82977 0 14.2137
-10.7154 0 13.998
-1.09251 0 1.17715
-7.17075 0 12.0613
10.5374 0 1.30898
-15.1811 0 4.51033
22.2549 0 11.537
-0.653435 0 28.6584
-26.318 0 -8.32941
58.8076 0 57.1802
-28.1496 0 8.23456
120.318 0 -12.4793
24.2622 0 48.8123
17.464 0 4.05783
9.78433 0 -4.66048
-25.0483 0 24.3303
-1.97828 0 16.5817
-25.2459 0 24.4374
51.7064 0 -9.50322
8.00981 0 -53.028
23.0105 0 -17.5245
84.8602 0 55.2353
38.8345 0 -28.0533
-20.5783 0 -15.809
-15.9265 0 -43.8604
-11.7363 0 6.08892
0.163035 0 8.56298
-5.63171 0 8.07821
2.12113 0 19.7962
-10.9711 0 -5.93266
-3.08021 0 20.0293
14.394 0 -4.43325
-1.9929 0 20.9679
36.2801 0 21.3303
3.36315 0 -19.5468
-9.61947 0 -3.7349
-1.79999 0 5.42236
-4.77765 0 -1.17305
3.04096 0 17.5477
-13.133 0 10.2799
2.55891 0 5.29958
2.65874 0 7.53841
-4.01561 0 13.8424
10.2729 0 6.58275
-1.39728 0 -61.0392
29.2484 0 40.5501
-29.1976 0 39.2439
2.08145 0 -61.2438
-10.1852 0 6.06034
4.11843 0 13.7894
-2.60679 0 6.95568
-2.50248 0 5.47654
13.3716 0 10.2386
-6.89801 0 19.476
5.90387 0 -1.19139
1.60649 0 4.87568
9.81725 0 -5.32361
-3.45476 0 -18.8767
-36.8244 0 20.8868
2.60167 0 21.2317
-14.8104 0 -4.23082
2.93828 0 20.1737
11.0887 0 -5.79905
-2.15484 0 19.794
5.69116 0 8.06218
-0.220045 0 8.54932
11.7934 0 6.0901
15.953 0 -43.989
20.5832 0 -15.8018
-38.829 0 -28.0474
-84.8225 0 55.213
-23.008 0 -17.5196
-8.01264 0 -53.033
-51.7044 0 -9.50115
25.2458 0 24.4379
1.97716 0 16.5809
-0.773986 0 -20.9046
-26.0696 0 6.195
-92.4414 0 -34.1797
76.1367 0 82.9846
8.16263 0 -21.8492
-38.7136 0 22.0631
-26.2478 0 -31.581
31.8546 0 7.88842
8.16588 0 30.1328
-19.8967 0 -9.5077
-22.4044 0 -4.33593
-19.9105 0 58.0231
63.2224 0 -48.7455
-35.62 0 -16.8164
5.05019 0 -2.07867
-11.3601 0 22.2618
-54.4927 0 -61.9745
8.57176 0 5.61746
-37.0819 0 7.79864
14.6602 0 3.43373
-19.6737 0 24.6701
-8.19599 0 11.6695
28.5832 0 -6.62444
13.9943 0 -13.5837
-14.7182 0 1.62221
8.36457 0 -26.4499
78.812 0 12.3746
-4.66253 0 16.0372
-16.2962 0 4.82726
53.5668 0 86.7067
-53.4792 0 87.3112
16.2258 0 4.93841
4.71814 0 17.021
-79.8958 0 11.5851
-7.89571 0 -28.5217
15.643 0 2.76127
-13.4099 0 -18.7448
-29.8429 0 -7.04462
8.16032 0 11.5979
20.0023 0 25.195
-14.8527 0 3.41365
37.3306 0 7.82297
-8.47436 0 5.57164
53.4245 0 -60.2076
11.4517 0 21.8239
-4.81712 0 -2.04963
36.0318 0 -16.8228
-63.1844 0 -48.4896
19.3318 0 57.8437
22.8125 0 -4.29065
20.0173 0 -9.51556
-8.1837 0 30.2731
-31.8437 0 7.90908
26.2365 0 -31.546
38.7055 0 22.0574
-8.15451 0 -21.8372
-76.1427 0 82.9882
92.4453 0 -34.1796
26.0709 0 6.19416
0.775093 0 -20.8968
20.5593 0 9.30872
19.8261 0 -13.0298
-22.1081 0 -11.0108
-34.8494 0 -10.778
-6.44869 0 0.272369
64.7704 0 -16.0372
28.826 0 6.10489
-5.4189 0 28.5024
16.2559 0 -14.623
-11.9511 0 -23.6123
-28.8674 0 -8.83355
-8.04748 0 -7.18564
-3.26988 0 -10.6157
33.5737 0 -4.47304
-4.89654 0 -14.4951
-33.9622 0 113.971
95.6086 0 -97.1851
3.02037 0 -17.5868
-3.79654 0 19.6087
27.8927 0 -14.9003
4.54155 0 12.8997
-0.973062 0 21.9577
-90.3614 0 0.276298
55.6192 0 15.0196
-77.7288 0 -30.882
-0.227155 0 -6.70636
-3.6085 0 6.34185
-20.2184 0 -27.2071
18.5149 0 -9.16604
2.9868 0 -5.18613
-2.98384 0 -5.19361
-18.6309 0 -10.0608
19.3488 0 -27.0007
3.37982 0 5.32285
0.71465 0 -6.79216
77.7669 0 -30.1295
-53.5459 0 19.2111
89.8513 0 -1.53237
0.911637 0 21.9481
-5.40227 0 13.8923
-28.3304 0 -14.9753
3.6936 0 20.0411
-3.51858 0 -17.8638
-95.4876 0 -101.248
36.4138 0 117.978
5.05011 0 -14.8596
-33.6092 0 -4.56682
3.91649 0 -11.2815
7.6883 0 -7.11981
29.5705 0 -9.16974
11.7536 0 -23.5165
-16.3096 0 -14.7496
5.41489 0 28.4898
-28.8071 0 6.09534
-64.7961 0 -16.0315
6.47233 0 0.254947
34.8436 0 -10.7743
22.1008 0 -11.0086
-19.8184 0 -13.0277
-20.5607 0 9.30268
1.59975 0 -7.73262
-1.66331 0 -12.637
-15.0638 0 -12.7916
46.2038 0 20.9917
-11.1007 0 -48.2769
-74.8369 0 -1.3892
17.1525 0 32.2433
-49.3096 0 -17.0284
-1.72078 0 2.56851
82.9673 0 -0.686076
13.2504 0 -35.7566
2.0174 0 -45.5211
-48.2134 0 -7.7525
-1.584 0 -2.82053
-7.90895 0 9.58238
-3.58276 0 10.6281
-6.03992 0 -19.808
-15.0496 0 12.6552
-12.1588 0 -15.6131
3.76452 0 0.00730305
-60.145 0 -29.2454
-5.12086 0 -45.0309
6.0976 0 -4.62934
22.6558 0 -69.9019
4.79477 0 16.2339
31.5216 0 6.90276
-13.4605 0 8.21214
20.6903 0 -43.5101
8.60342 0 3.41466
-16.5034 0 6.31453
16.992 0 5.99366
-7.79746 0 2.95581
-27.0763 0 -50.9951
11.118 0 17.6848
-33.986 0 7.98244
-5.40425 0 22.2554
-21.9781 0 -73.8558
-8.27813 0 -3.56767
4.59606 0 -45.4317
61.4287 0 -29.6221
-3.96487 0 0.0183869
13.367 0 -13.0364
13.5238 0 9.18274
7.98829 0 -20.8155
2.58225 0 10.323
7.89672 0 9.58116
1.59098 0 -2.80729
48.4636 0 -7.59456
-1.84371 0 -45.549
-13.2403 0 -35.5972
-83.0061 0 -0.706978
1.58656 0 2.59389
49.4503 0 -17.0772
-17.2008 0 32.2355
74.8696 0 -1.38848
11.1026 0 -48.266
-46.1974 0 20.9903
15.0557 0 -12.7924
1.65632 0 -12.6507
-1.59837 0 -7.70571
1.74485 0 32.2862
-16.0009 0 -25.5496
-6.69011 0 9.09545
1.25298 0 -69.6002
23.3508 0 36.6955
14.0741 0 4.69666
-16.3407 0 -47.9645
5.53648 0 -8.02278
-24.9371 0 43.5529
-42.2931 0 3.0946
18.9876 0 -27.1966
-7.40582 0 -14.1867
9.64417 0 5.07996
-0.460495 0 6.96206
9.96767 0 -1.18256
-1.15623 0 0.482656
-6.12049 0 4.94101
17.2763 0 13.4472
-14.944 0 0.17778
44.6237 0 5.07326
6.54692 0 12.2755
-1.39866 0 -9.76872
-15.7736 0 79.1982
-7.54122 0 9.53468
19.6472 0 8.42317
2.42223 0 38.3684
-18.7313 0 6.77889
-11.2747 0 12.0993
11.0774 0 1.48219
-15.0176 0 5.69623
28.2817 0 -8.75171
-13.6236 0 5.6833
10.6951 0 13.5025
18.6699 0 5.59828
6.99802 0 33.957
-17.3664 0 7.87502
6.71852 0 11.0562
17.9131 0 80.4215
1.94023 0 -9.51035
-6.73478 0 12.451
-45.6112 0 4.77343
14.1458 0 0.629488
-17.3811 0 13.915
3.85174 0 3.73629
0.893858 0 -0.684691
-10.3137 0 -1.27215
0.580437 0 7.07798
-9.61741 0 4.9935
7.20599 0 -14.0486
-18.9469 0 -27.3777
42.0601 0 3.35423
25.0187 0 43.6399
-5.64849 0 -8.04332
16.3979 0 -48.076
-14.0896 0 4.70182
-23.3026 0 36.6931
-1.24932 0 -69.6133
6.69674 0 9.1012
15.9952 0 -25.5297
-1.73566 0 32.2414
8.55676 0 -16.7085
20.8612 0 27.7003
17.0626 0 13.4305
-19.132 0 -3.18979
-12.3206 0 86.6557
5.08366 0 -0.525224
8.53945 0 -4.16097
5.69058 0 68.8823
-2.50579 0 -10.7146
-0.142731 0 -43.2709
-13.354 0 48.8565
13.1834 0 7.72177
19.729 0 52.9827
-18.5016 0 5.52566
-9.90973 0 -28.1273
44.5364 0 -11.7649
-14.7133 0 -0.984727
12.1978 0 2.2177
0.781677 0 -43.3453
22.3343 0 -8.5598
-5.95326 0 23.4925
-7.78209 0 54.1108
-3.13452 0 -11.2535
22.5445 0 10.25
-84.7777 0 -5.96933
95.5118 0 -32.9052
-3.42297 0 2.51331
12.3368 0 5.25192
10.8097 0 -17.2511
-14.1389 0 2.83297
3.21911 0 20.0859
-41.6647 0 -8.96851
16.1458 0 -2.16348
1.12684 0 1.93357
-59.3944 0 -14.6134
57.6504 0 -18.5463
-23.9202 0 10.9977
3.4643 0 -11.012
7.80236 0 54.2934
6.14643 0 24.1898
-21.1847 0 -7.88708
-0.878073 0 -41.8702
-14.2125 0 2.93436
16.364 0 0.0966731
-44.5266 0 -12.0052
10.0537 0 -27.8132
18.4944 0 5.50922
-20.0853 0 53.0788
-13.5138 0 7.84752
13.6998 0 48.557
0.129493 0 -43.5468
2.53876 0 -10.7386
-5.65823 0 69.0374
-8.51407 0 -4.21458
-5.07667 0 -0.526994
12.2888 0 86.6333
19.1302 0 -3.1768
-17.0802 0 13.4327
-20.8648 0 27.7173
-8.54615 0 -16.7145
-1.76594 0 18.0432
2.02712 0 -12.2789
10.1627 0 -32.3533
65.7208 0 -22.3635
-9.19767 0 4.12271
-0.829684 0 -11.8508
12.7483 0 -5.56102
-29.853 0 -7.06191
32.4103 0 -2.76709
10.8198 0 0.44045
-23.5126 0 -49.2677
54.0566 0 16.9334
-14.9081 0 11.3706
39.8873 0 2.03002
46.9144 0 -86.4944
4.9923 0 18.0689
-17.6225 0 19.4925
57.813 0 -40.6199
-33.3999 0 46.45
14.2147 0 2.36737
-45.9917 0 -59.4612
-8.26365 0 -9.14018
-15.475 0 -10.8332
6.69662 0 -12.6652
4.58122 0 0.846858
-20.3918 0 12.5454
-6.60597 0 -11.9155
-23.8778 0 10.8763
-56.4923 0 21.6692
-36.9916 0 -74.9546
36.383 0 -58.981
52.2729 0 15.6034
12.7865 0 5.34523
12.7309 0 -17.4656
16.7276 0 5.86055
-1.42896 0 5.11005
-12.173 0 -14.5339
21.161 0 -9.66407
7.78209 0 -9.28896
36.7594 0 -50.1317
-15.4341 0 1.94774
34.3651 0 44.5965
-56.801 0 -35.2023
14.4792 0 16.6086
-5.58556 0 18.5944
-47.2237 0 -87.0056
-39.6705 0 1.9154
15.21 0 11.4372
-54.8297 0 17.2019
24.2322 0 -48.6039
-10.8669 0 0.642279
-32.4249 0 -2.75191
29.8413 0 -7.00871
-12.7436 0 -5.59063
0.831427 0 -11.8504
9.21002 0 4.11877
-65.7567 0 -22.4098
-10.1648 0 -32.3396
-2.04929 0 -12.2899
1.7605 0 18.0413
-25.0727 0 13.1841
13.1947 0 -6.02483
-37.6299 0 35.3487
-3.82326 0 -2.70636
6.33506 0 -2.70477
-4.04179 0 6.57146
4.00152 0 5.30665
-4.22008 0 8.43119
-2.39854 0 6.8095
-2.10966 0 -19.0695
-110.691 0 67.6824
62.5833 0 -6.50039
-2.66099 0 -9.90599
2.46413 0 -10.1026
-45.1151 0 11.1169
-0.163681 0 -3.22829
-19.0039 0 -18.1512
-10.9441 0 7.26614
-2.3709 0 -16.0433
-5.76846 0 19.157
3.99035 0 11.485
9.16913 0 -4.79786
42.4816 0 39.2906
-27.9693 0 4.99363
11.8074 0 -44.1236
17.8017 0 -3.02135
28.6029 0 25.9378
4.77749 0 15.6279
-13.7439 0 -20.0015
80.9148 0 72.5144
-64.9165 0 58.2614
14.4753 0 -18.0214
-3.97353 0 18.7181
-25.3022 0 26.6434
-19.2461 0 -5.93803
-2.96761 0 -58.8982
18.3117 0 3.867
-33.5187 0 29.5746
-8.15965 0 -4.87146
-4.3064 0 11.5603
5.61539 0 16.6248
4.12481 0 -15.6267
10.9574 0 7.27294
21.4976 0 -19.0212
-0.249771 0 -3.61478
44.6829 0 10.7032
-2.55307 0 -10.124
2.68132 0 -9.88714
-62.889 0 -6.26699
110.72 0 67.0961
2.5174 0 -19.9501
2.40635 0 6.82701
4.22215 0 8.44655
-4.00547 0 5.31707
4.03226 0 6.60204
-6.32928 0 -2.70512
3.82352 0 -2.70415
37.6648 0 35.3703
-13.1996 0 -6.02519
25.0939 0 13.1926
-4.32038 0 48.4211
-5.64601 0 -11.3763
24.9227 0 19.0875
-3.47276 0 -9.97944
-5.81143 0 13.8862
17.6838 0 -3.40883
-109.637 0 -78.7048
-28.5159 0 -59.2556
40.644 0 24.038
-58.1642 0 13.439
8.63217 0 -9.75036
-8.70835 0 27.5368
-29.761 0 -2.42534
-27.054 0 5.95866
60.3971 0 -14.8459
-45.5023 0 82.8959
7.38522 0 -12.767
24.8791 0 1.92757
-14.7162 0 4.44975
7.11494 0 7.75515
-43.6125 0 -66.3934
-86.0906 0 -3.66915
-3.9358 0 7.92837
4.76404 0 9.54398
-54.1661 0 -47.4688
-4.46161 0 3.66641
-11.6678 0 5.40229
-1.7993 0 -5.06609
31.9991 0 -3.7722
-11.736 0 -0.544738
10.086 0 -0.0226824
-28.5352 0 -3.5512
-2.00364 0 -5.79481
10.7277 0 5.25872
2.02478 0 5.77077
52.7832 0 -47.2181
-5.05219 0 9.72973
3.9101 0 7.48097
78.4013 0 -4.98246
34.8225 0 -54.6716
-4.67395 0 7.49423
14.5563 0 4.49408
-26.4894 0 3.06174
-7.11907 0 -12.1898
46.0145 0 83.6314
-60.2493 0 -14.9073
26.6608 0 5.35106
29.9144 0 -2.28353
8.74342 0 27.4812
-8.74572 0 -9.63986
57.9394 0 14.1088
-40.5196 0 24.5033
28.5803 0 -59.29
109.729 0 -78.792
-17.6996 0 -3.43196
5.81267 0 13.8837
3.47249 0 -9.97236
-24.923 0 19.0814
5.64607 0 -11.3798
4.31638 0 48.4207
32.6545 0 -37.1456
-7.90076 0 -7.9957
-8.60215 0 3.52756
-27.7114 0 24.9761
21.9243 0 -38.5203
1.56809 0 -4.49146
17.0761 0 -0.683635
94.5086 0 34.7441
3.52158 0 -0.114026
-7.49238 0 -56.5254
2.48495 0 12.6863
14.7848 0 -1.33495
26.6183 0 9.03796
15.1579 0 21.7139
-11.1422 0 2.84033
-26.9876 0 -10.9598
18.243 0 34.9483
7.48226 0 15.365
13.1344 0 -10.3854
-1.62814 0 -6.57804
2.25078 0 -9.49189
47.4581 0 65.1501
59.6001 0 59.3708
-30.6565 0 13.7861
24.7898 0 -47.1757
11.8232 0 43.1972
17.4375 0 6.85447
2.03834 0 -18.4763
-8.13422 0 -8.19922
7.6157 0 2.45207
-7.31604 0 1.92797
4.00401 0 -1.40262
1.50094 0 -16.8797
-12.3374 0 6.64508
-11.4084 0 57.226
-23.3867 0 -48.9941
28.117 0 19.3511
-54.0601 0 61.9953
-37.5636 0 54.9937
-3.28742 0 -10.7736
1.27797 0 -6.09906
-12.3761 0 -9.63183
-7.56266 0 15.2893
-18.2047 0 34.9208
26.2284 0 -10.542
10.9419 0 3.04815
-15.1261 0 22.2234
-28.9955 0 9.90442
-12.8587 0 -1.9431
-2.42417 0 12.7493
7.42616 0 -56.6714
-3.55881 0 -0.207044
-94.7875 0 34.6887
-17.0982 0 -0.668684
-1.59486 0 -4.46733
-21.8703 0 -38.5003
27.7048 0 24.9526
8.60188 0 3.53021
7.88975 0 -7.97197
-32.6601 0 -37.1476
6.41451 0 7.62754
-6.46545 0 9.17164
1.59736 0 -9.75837
-3.83787 0 -5.25697
-26.0367 0 -22.0497
8.37687 0 0.603963
15.7672 0 9.88772
-26.3566 0 36.9339
-6.51772 0 -10.3644
26.1521 0 42.322
13.167 0 58.1897
7.66333 0 -19.0287
-24.507 0 -47.5778
-18.3453 0 -21.8399
9.81848 0 -11.9435
6.1042 0 -7.41975
7.79196 0 12.1208
-0.762596 0 7.74343
8.07589 0 13.7014
-11.1985 0 0.262941
8.8514 0 10.9385
9.68762 0 0.197065
-13.4091 0 -20.9133
3.83912 0 20.9655
58.7709 0 42.2675
-31.883 0 -1.56809
-16.1172 0 -9.3016
-0.649934 0 -13.8831
-12.5335 0 -13.692
-3.94403 0 7.22193
3.50254 0 6.7736
11.1829 0 -13.139
-1.88826 0 -16.2754
16.241 0 -10.6509
31.1577 0 -1.72599
-63.739 0 33.6683
-4.10015 0 19.6631
11.9657 0 -18.2628
-9.45326 0 0.362095
-8.95119 0 10.1639
11.5156 0 3.79412
-9.09717 0 12.7117
1.26921 0 7.77109
-7.4919 0 11.7539
-6.22189 0 -7.71504
-9.61843 0 -11.8583
19.1193 0 -22.6636
24.4088 0 -44.8012
-7.76711 0 -19.032
-13.1131 0 58.3415
-26.2338 0 41.8232
6.43991 0 -10.284
26.4546 0 37.073
-15.8789 0 9.86218
-8.3729 0 0.617642
26.1613 0 -22.072
3.83578 0 -5.24244
-1.66826 0 -9.69023
6.46771 0 9.15952
-6.41416 0 7.62438
-18.0165 0 68.2121
24.9923 0 -54.6159
29.5933 0 1.62788
-0.496828 0 13.8665
-8.87458 0 -14.0471
0.614542 0 18.4121
41.3298 0 -29.0876
18.0474 0 -0.855235
-5.70763 0 3.73475
-21.851 0 -1.51347
7.66085 0 -3.29474
6.8548 0 0.664245
1.86991 0 10.3492
-9.38648 0 38.4493
1.79805 0 -13.4244
-32.7908 0 8.30807
-1.18326 0 -12.7912
3.42774 0 0.886981
12.3505 0 12.9443
32.9986 0 -38.7796
4.72091 0 9.37626
-6.32423 0 0.549965
2.5033 0 -15.8091
24.0651 0 -0.976168
1.25458 0 -14.5254
-0.580192 0 2.01972
51.1871 0 -22.9642
-9.01753 0 2.28718
6.52113 0 -15.2081
16.2272 0 3.822
-17.0307 0 3.38719
-6.09155 0 -23.9474
8.58417 0 2.51505
-50.6359 0 -21.8903
0.424233 0 0.926957
-0.558586 0 -13.1867
-22.0812 0 -6.11049
-2.15011 0 -16.9015
5.78042 0 2.98723
-4.98584 0 6.00858
-33.6625 0 -38.8457
-12.362 0 13.2804
-3.8052 0 0.719605
1.2654 0 -12.5952
33.7627 0 7.95474
-2.56439 0 -12.9355
9.82665 0 35.4528
-1.51163 0 10.1291
-5.83547 0 1.3164
-9.27418 0 -3.45698
22.6318 0 -1.42082
5.70618 0 3.73161
-18.1511 0 -0.917582
-41.2421 0 -29.0778
-0.730521 0 18.4924
8.91412 0 -13.9862
0.61029 0 13.7746
-29.5981 0 1.63479
-24.9924 0 -54.6179
18.0092 0 68.2238
23.7462 0 3.99596
-59.6349 0 -11.8529
48.8744 0 28.0001
23.3866 0 -20.4386
-4.75443 0 17.6999
-54.706 0 -18.8802
-43.667 0 36.247
19.6909 0 23.4427
0.913393 0 10.8841
1.3709 0 -7.36158
-28.7316 0 -46.0114
-8.66357 0 -6.19346
-107.766 0 -32.2442
99.9284 0 -22.6861
3.37873 0 -27.4905
22.843 0 21.2454
18.2101 0 9.83102
3.41479 0 -2.45764
6.68194 0 5.29681
-23.6091 0 30.9689
-2.35265 0 -35.9598
-64.7775 0 -64.8873
-9.7861 0 10.2726
-26.7738 0 7.37937
-20.3734 0 -45.8803
-1.48093 0 -10.2891
-34.246 0 41.7474
12.8133 0 15.1563
-15.4646 0 -4.29565
-13.3026 0 -2.96142
14.1469 0 -1.43204
15.1853 0 -4.24466
-12.7972 0 15.3629
34.0074 0 43.2783
1.57642 0 -10.415
20.7551 0 -45.5313
28.6821 0 6.94632
8.97123 0 10.8766
66.2877 0 -68.6453
-2.37871 0 -35.1906
24.2912 0 31.8569
-6.46212 0 4.73807
-3.61905 0 -2.23922
-19.0868 0 10.0611
-22.527 0 21.0993
-13.0958 0 -12.3967
-98.687 0 -29.7422
105.325 0 -30.0395
9.61562 0 -6.9275