# vtk DataFile Version 3.0
SiWiRVisFile
ASCII
DATASET UNSTRUCTURED_GRID
POINTS 1600 DOUBLE
76.7187 100 72.3373
75.89 100 73.167
76.7942 100 73.8199
78.6753 100 73.3991
79.7669 100 73.786
80.6677 100 74.4248
83.0145 100 73.9666
83.897 100 74.5462
85.0384 100 74.7475
83.9137 100 73.4304
92.3073 100 69.8258
91.2521 100 69.31
91.285 100 70.399
89.9461 100 69.319
86.1087 100 68.5367
90.2724 100 60.3125
91.3578 100 60.0636
92.3999 100 58.4038
88.9458 100 53.543
94.2315 100 57.961
105.589 100 38.9583
106.392 100 38.1381
106.124 100 36.9663
107.215 100 37.2433
105.131 100 36.5027
112.031 100 37.7664
110.92 100 31.2461
111.644 100 29.6962
110.666 100 32.5342
111.765 100 32.0041
112.97 100 31.8449
114.091 100 32.0839
112.6 100 30.7002
113.719 100 30.9605
113.108 100 37.5435
119.343 100 36.6265
117.067 100 37.1773
118.092 100 36.8948
117.813 100 37.9788
118.815 100 38.8755
129.647 100 57.4857
135.547 100 53.5431
131.765 100 58.7026
133.255 100 60.7448
134.228 100 60.2665
135.728 100 69.5451
134.696 100 68.7613
134.297 100 71.0852
133.63 100 69.0732
133.394 100 70.3397
140.518 100 73.3176
139.566 100 74.7762
140.639 100 74.4242
141.672 100 74.043
143.655 100 74.3542
144.795 100 73.8471
146.002 100 73.5481
147.706 100 73.5206
148.739 100 73.1427
147.861 100 72.3964
74.8672 100 73.619
75.8348 100 74.3045
77.8583 100 74.2339
78.8837 100 74.5634
79.8446 100 75.1237
81.8398 100 74.7023
82.9471 100 75.0212
83.9975 100 75.6518
85.2293 100 75.8668
86.5776 100 75.7431
87.4634 100 76.2604
91.949 100 68.3218
90.1707 100 70.4903
90.7453 100 66.3467
91.5385 100 62.0736
90.8665 100 68.3158
92.4438 100 59.6893
93.6137 100 58.8157
94.8068 100 58.8681
97.2749 100 57.519
105.156 100 37.645
97.1766 100 44.6114
106.351 100 46.9382
110.391 100 35.5366
108.202 100 36.4378
110.551 100 37.8509
110.138 100 36.7328
109.275 100 35.9471
107.325 100 28.9956
111.91 100 33.0971
113.121 100 32.8959
117.386 100 29.044
113.439 100 34.5327
115.607 100 36.122
114.836 100 37.8206
115.92 100 37.3831
114.272 100 35.6434
118.2 100 46.9107
127.316 100 44.6114
118.93 100 37.7125
126.578 100 57.7232
129.05 100 58.5943
130.667 100 57.8845
133.176 100 59.5955
133.052 100 67.7539
132.572 100 61.6947
132.873 100 65.2998
134.571 100 70.0465
132.436 100 68.8061
137.489 100 76.4301
138.123 100 75.3646
139.355 100 75.8468
140.389 100 75.5124
141.537 100 75.2461
142.707 100 74.7933
144.57 100 74.9642
145.688 100 74.6248
146.787 100 74.2154
148.485 100 74.2431
149.837 100 73.5233
74.8821 100 74.9687
76.0314 100 75.5151
76.9761 100 74.9141
77.9409 100 75.3182
78.9769 100 75.7511
80.9328 100 75.5017
82.2406 100 75.9588
83.3063 100 76.5432
84.3996 100 76.7267
85.5853 100 76.8528
86.6625 100 76.9712
87.3357 100 77.9107
89.1264 100 76.7937
91.4475 100 67.2728
91.5501 100 64.2821
93.4373 100 63.1488
92.7526 100 60.8844
93.4848 100 59.9339
94.5617 100 59.8803
96.3424 100 56.9477
98.2032 100 56.6158
104.493 100 48.4629
105.496 100 47.9847
106.543 100 48.1772
100.709 100 45.1545
107.551 100 47.5668
107.307 100 46.358
105.324 100 46.4841
110.607 100 34.3423
111.756 100 34.6035
112.606 100 33.9145
114.042 100 33.5099
120.945 100 46.0606
117.405 100 46.1944
117.487 100 47.8712
121.292 100 47.075
118.168 100 48.9061
118.965 100 47.7816
120.45 100 49.2157
125.836 100 56.8339
128.31 100 57.2703
130.241 100 59.0566
132.076 100 59.8029
131.688 100 60.8457
132.635 100 63.0819
132.262 100 64.1009
132.809 100 66.5879
135.616 100 76.6956
137.018 100 77.4867
138.154 100 77.3264
139.236 100 76.8881
140.289 100 76.6827
141.397 100 76.3459
142.473 100 75.8472
143.537 100 75.5376
145.593 100 75.7151
146.663 100 75.3886
147.604 100 74.9113
148.541 100 75.5171
149.47 100 74.7723
75.1592 100 76.215
76.2374 100 76.626
77.0549 100 75.9994
78.0984 100 76.4466
80.0253 100 76.3143
81.1695 100 76.5884
82.3754 100 77.1334
83.467 100 77.694
84.97 100 77.7263
86.0936 100 77.992
86.5437 100 78.9169
88.5781 100 78.1345
88.1822 100 77.127
92.3828 100 66.7841
91.8551 100 65.6337
92.8036 100 64.6529
93.9524 100 62.0097
92.8787 100 62.2518
94.1307 100 60.8812
95.2157 100 60.8202
95.8384 100 59.1553
98.4145 100 57.7574
104.42 100 47.3851
105.353 100 52.9772
105.77 100 49.0496
105.877 100 50.5921
108.377 100 49.5986
110.577 100 49.8689
108.372 100 46.2888
111.565 100 36.0815
113.325 100 36.3671
116.669 100 46.8875
115.129 100 48.2803
115.84 100 49.3166
118.215 100 50.0835
119.26 100 49.1564
119.262 100 50.3076
120.022 100 47.2139
125.453 100 57.8839
128.027 100 59.4414
129.342 100 60.6689
130.319 100 61.1689
131.496 100 61.882
131.339 100 63.0744
131.062 100 64.1929
131.78 100 66.0557
132.036 100 67.4869
136.413 100 75.9884
136.635 100 78.5231
137.69 100 78.2919
138.933 100 78.0252
140.054 100 77.7386
141.118 100 77.5356
142.244 100 77.0656
143.287 100 76.61
144.383 100 76.1919
146.436 100 76.4401
147.53 100 76.0311
148.314 100 76.7253
149.478 100 76.0402
75.2867 100 77.3498
76.3793 100 77.8778
77.3287 100 77.1156
79.2262 100 77.0139
80.3081 100 77.4486
81.3301 100 77.7825
82.3935 100 78.2935
83.3315 100 78.9519
84.3957 100 78.7099
85.4362 100 78.936
86.4207 100 80.4757
89.4281 100 78.8653
90.2708 100 76.3006
94.7459 100 65.0405
93.01 100 65.7784
95.0339 100 62.9227
96.3098 100 62.7609
95.6094 100 61.9011
96.2498 100 60.0825
97.1624 100 59.3494
96.5779 100 58.3072
102.846 100 56.4993
104.818 100 51.3017
107.059 100 50.7738
106.919 100 49.47
108.125 100 50.6577
109.359 100 50.7552
110.481 100 51.0217
107.713 100 48.7682
111.032 100 38.9078
112.345 100 39.5353
116.235 100 48.1246
114.155 100 50.8355
115.316 100 50.1805
116.37 100 50.5037
117.257 100 49.5326
117.294 100 50.8246
117.603 100 51.9971
121.476 100 55.8458
127.592 100 58.4956
127 100 59.3467
128.175 100 60.4952
129.451 100 61.8371
130.461 100 62.2578
129.227 100 62.8184
130.766 100 66.4451
130.421 100 65.2355
135.902 100 77.7385
135.458 100 78.7575
137.869 100 80.2335
138.334 100 79.2257
139.496 100 78.9455
140.923 100 78.732
142.002 100 78.12
143.113 100 77.8352
144.142 100 77.3866
145.296 100 76.9619
147.261 100 77.1193
148.306 100 77.831
149.283 100 77.2692
75.3437 100 78.5634
76.3614 100 78.9193
77.3476 100 78.4028
78.2583 100 77.6642
79.3363 100 78.1041
80.3687 100 78.5344
81.4052 100 78.8324
82.3286 100 79.4871
83.2753 100 80.037
84.3841 100 79.7508
85.412 100 80.1309
87.7664 100 78.9421
90.2402 100 79.7403
88.5081 100 75.8854
91.1821 100 75.6574
94.1735 100 63.9106
96.4278 100 63.9126
97.4258 100 63.0804
96.9691 100 61.8993
97.3063 100 60.5056
98.1595 100 58.8252
100.785 100 58.0264
104.163 100 54.7178
104.867 100 53.8669
105.961 100 51.9127
107.085 100 51.9398
108.568 100 53.2944
108.836 100 51.8374
112.116 100 50.3081
111.416 100 49.0081
114.681 100 49.2213
113.286 100 52.076
115.136 100 51.3778
115.658 100 52.7756
116.478 100 51.732
118.349 100 51.089
118.653 100 52.4647
121.337 100 54.7952
124.096 100 58.9505
126.143 100 58.7038
127.12 100 60.4542
128.244 100 61.803
127.73 100 62.7678
128.203 100 63.7024
129.984 100 63.677
134.195 100 75.4281
135.618 100 74.2198
134.738 100 79.7056
137.006 100 79.5397
139.129 100 79.9749
140.447 100 79.6426
141.044 100 80.6846
141.669 100 79.6658
142.716 100 78.9262
143.949 100 78.5019
145.111 100 78.0683
146.282 100 77.7083
147.238 100 78.3121
148.217 100 79.0702
149.2 100 78.4572
74.2224 100 79.0452
75.125 100 79.6102
77.5041 100 79.4956
78.4181 100 78.7785
79.5188 100 79.2379
79.4631 100 82.2332
81.3708 100 80.0122
82.3388 100 80.6486
83.3759 100 81.1925
84.4332 100 80.9856
85.5798 100 81.2147
88.6365 100 79.6189
90.5258 100 80.7995
89.7608 100 75.1615
95.6218 100 65.6162
95.4094 100 64.0536
96.5202 100 65.0593
98.4577 100 63.678
98.0261 100 61.3327
98.2642 100 59.8719
99.6417 100 58.7071
101.948 100 57.6361
103.947 100 56.3739
106.532 100 52.9053
109.244 100 54.4146
109.606 100 52.7892
108.073 100 56.1587
110.64 100 52.4084
107.182 100 56.9648
108.619 100 57.0565
116.662 100 57.2919
116.433 100 56.0381
114.635 100 52.2945
115.369 100 56.4925
115.038 100 54.0258
116.18 100 53.8903
116.765 100 52.8486
120.317 100 55.7387
122.115 100 57.2824
125.133 100 59.1662
126.112 100 59.9195
127.126 100 61.6029
126.628 100 62.574
127.125 100 64.7148
129.431 100 64.6967
129.358 100 65.846
135.444 100 75.3166
130.9 100 81.9932
135.891 100 79.801
138.77 100 80.9282
139.99 100 80.7327
140.902 100 81.7176
142.407 100 80.761
143.169 100 79.9081
145.126 100 80.654
145.01 100 79.3053
146.039 100 78.7917
147.046 100 79.5937
149.307 100 79.6283
150.178 100 78.8621
73.8105 100 80.077
75.0974 100 80.6836
76.2547 100 80.1195
77.3233 100 80.5682
78.5136 100 80.0618
78.4425 100 81.1749
80.3888 100 80.5098
81.3118 100 81.1301
82.3404 100 81.8768
84.0089 100 82.1937
85.0995 100 82.4761
86.3476 100 82.3514
87.3349 100 79.9358
87.1789 100 81.6336
87.4542 100 82.96
91.3316 100 79.6767
96.5107 100 66.1883
97.4449 100 64.2391
99.9276 100 61.8027
98.8344 100 62.5459
99.1464 100 60.8834
99.5965 100 59.8546
104.728 100 56.9647
105.977 100 53.93
107.669 100 53.9293
109.095 100 55.5941
108.094 100 54.8571
105.636 100 57.6786
106.744 100 57.9534
109.47 100 59.5739
115.543 100 58.0454
119.208 100 57.7436
119.753 100 58.8874
116.645 100 54.9526
115.559 100 55.0469
117.289 100 54.0983
117.89 100 53.2099
121.034 100 56.824
124.575 100 60.1419
126.157 100 60.9863
125.392 100 62.1204
125.881 100 63.3759
127.031 100 63.5939
128.422 100 65.2478
131.462 100 80.9444
137.145 100 82.3347
137.817 100 81.4727
136.937 100 80.6839
138.232 100 82.5621
139.286 100 83.0362
139.441 100 81.9041
141.948 100 81.7407
143.255 100 81.8239
143.91 100 80.7129
145.783 100 81.472
146.033 100 79.9325
146.644 100 80.7807
148.077 100 80.2279
149.001 100 80.7285
150.18 100 80.2579
74.036 100 81.2506
75.2752 100 82.2912
76.379 100 81.1279
77.3209 100 81.6564
77.9485 100 83.8578
76.3914 100 84.3932
78.324 100 82.3917
80.4278 100 81.7029
81.4245 100 82.6487
80.3436 100 82.8856
82.51 100 83.051
84.4495 100 83.4741
85.525 100 83.4689
86.5339 100 83.7676
88.4977 100 83.2307
90.6 100 78.5809
97.7852 100 67.0065
97.4652 100 65.6633
99.6664 100 63.3932
100.618 100 64.0742
100.743 100 59.7485
[...]
POINT_DATA 1600
SCALARS mass double
LOOKUP_TABLE default
1
1
1
1
1
1
1
1
1
1
1
1
1
1
1
1
1
1
1
1
1
1
1
1
1
1
1
1
1
1
1
1
1
1
1
1
1
1
1
1
1
1
1
1
1
1
1
1
1
1
1
1
1
1
1
1
1
1
1
1
1
1
1
1
1
1
1
1
1
1
1
1
1
1
1
1
1
1
1
1
1
1
1
1
1
1
1
1
1
1
1
1
1
1
1
1
1
1
1
1
1
1
1
1
1
1
1
1
1
1
1
1
1
1
1
1
1
1
1
1
1
1
1
1
1
1
1
1
1
1
1
1
1
1
1
1
1
1
1
1
1
1
1
1
1
1
1
1
1
1
1
1
1
1
1
1
1
1
1
1
1
1
1
1
1
1
1
1
1
1
1
1
1
1
1
1
1
1
1
1
1
1
1
1
1
1
1
1
1
1
1
1
1
1
1
1
1
1
1
1
1
1
1
1
1
1
1
1
1
1
1
1
1
1
1
1
1
1
1
1
1
1
1
1
1
1
1
1
1
1
1
1
1
1
1
1
1
1
1
1
1
1
1
1
1
1
1
1
1
1
1
1
1
1
1
1
1
1
1
1
1
1
1
1
1
1
1
1
1
1
1
1
1
1
1
1
1
1
1
1
1
1
1
1
1
1
1
1
1
1
1
1
1
1
1
1
1
1
1
1
1
1
1
1
1
1
1
1
1
1
1
1
1
1
1
1
1
1
1
1
1
1
1
1
1
1
1
1
1
1
1
1
1
1
1
1
1
1
1
1
1
1
1
1
1
1
1
1
1
1
1
1
1
1
1
1
1
1
1
1
1
1
1
1
1
1
1
1
1
1
1
1
1
1
1
1
1
1
1
1
1
1
1
1
1
1
1
1
1
1
1
1
1
1
1
1
1
1
1
1
1
1
1
1
1
1
1
1
1
1
1
1
1
1
1
1
1
1
1
1
1
1
1
1
1
1
1
1
1
1
1
1
1
1
1
1
1
1
1
1
1
1
1
1
1
1
1
1
1
1
1
1
1
1
1
1
1
1
1
1
1
1
1
1
1
1
1
1
1
1
1
1
1
1
1
1
1
1
1
1
1
1
1
1
1
1
1
1
1
1
1
1
1
1
1
1
1
1
1
1
1
1
1
1
1
1
1
1
1
1
1
1
1
1
1
1
1
1
1
1
1
1
1
1
1
1
1
1
1
1
1
1
1
1
1
1
1
1
1
1
1
1
1
1
1
1
1
1
1
1
1
1
1
1
1
1
1
1
1
1
1
1
1
1
1
1
1
1
1
1
1
1
1
1
1
1
1
1
1
1
1
1
1
1
1
1
1
1
1
1
1
1
1
1
1
1
1
1
1
1
1
1
1
1
1
1
1
1
1
1
1
1
1
1
1
1
1
1
1
1
1
1
1
1
1
1
1
1
1
1
1
1
1
1
1
1
1
1
1
1
1
1
1
1
1
1
1
1
1
1
1
1
1
1
1
1
1
1
1
1
1
1
1
1
1
1
1
1
1
1
1
1
1
1
1
1
1
1
1
1
1
1
1
1
1
1
1
1
1
1
1
1
1
1
1
1
1
1
1
1
1
1
1
1
1
1
1
1
1
1
1
1
1
1
1
1
1
1
1
1
1
1
1
1
1
1
1
1
1
1
1
1
1
1
1
1
1
1
1
1
1
1
1
1
1
1
1
1
1
1
1
1
1
1
1
1
1
1
1
1
1
1
1
1
1
1
1
1
1
1
1
1
1
1
1
1
1
1
1
1
1
1
1
1
1
1
1
1
1
1
1
1
1
1
1
1
1
1
1
1
1
1
1
1
1
1
1
1
1
1
1
1
1
1
1
1
1
1
1
1
1
1
1
1
1
1
1
1
1
1
1
1
1
1
1
1
1
1
1
1
1
1
1
1
1
1
1
1
1
1
1
1
1
1
1
1
1
1
1
1
1
1
1
1
1
1
1
1
1
1
1
1
1
1
1
1
1
1
1
1
1
1
1
1
1
1
1
1
1
1
1
1
1
1
1
1
1
1
1
1
1
1
1
1
1
1
1
1
1
1
1
1
1
1
1
1
1
1
1
1
1
1
1
1
1
1
1
1
1
1
1
1
1
1
1
1
1
1
1
1
1
1
1
1
1
1
1
1
1
1
1
1
1
1
1
1
1
1
1
1
1
1
1
1
1
1
1
1
1
1
1
1
1
1
1
1
1
1
1
1
1
1
1
1
1
1
1
1
1
1
1
1
1
1
1
1
1
1
1
1
1
1
1
1
1
1
1
1
1
1
1
1
1
1
1
1
1
1
1
1
1
1
1
1
1
1
1
1
1
1
1
1
1
1
1
1
1
1
1
1
1
1
1
1
1
1
1
1
1
1
1
1
1
1
1
1
1
1
1
1
1
1
1
1
1
1
1
1
1
1
1
1
1
1
1
1
1
1
1
1
1
1
1
1
1
1
1
1
1
1
1
1
1
1
1
1
1
1
1
1
1
1
1
1
1
1
1
1
1
1
1
1
1
1
1
1
1
1
1
1
1
1
1
1
1
1
1
1
1
1
1
1
1
1
1
1
1
1
1
1
1
1
1
1
1
1
1
1
1
1
1
1
1
1
1
1
1
1
1
1
1
1
1
1
1
1
1
1
1
1
1
1
1
1
1
1
1
1
1
1
1
1
1
1
1
1
1
1
1
1
1
1
1
1
1
1
1
1
1
1
1
1
1
1
1
1
1
1
1
1
1
1
1
1
1
1
1
1
1
1
1
1
1
1
1
1
1
1
1
1
1
1
1
1
1
1
1
1
1
1
1
1
1
1
1
1
1
1
1
1
1
1
1
1
1
1
1
1
1
1
1
1
1
1
1
1
1
1
1
1
1
1
1
1
1
1
1
1
1
1
1
1
1
1
1
1
1
1
1
1
1
1
1
1
1
1
1
1
1
1
1
1
1
1
1
1
1
1
1
1
1
1
1
1
1
1
1
1
1
1
1
1
1
1
1
1
1
1
1
1
1
1
1
1
1
1
1
1
1
1
1
1
1
1
1
1
1
1
1
1
1
1
1
1
1
1
1
1
1
1
1
1
1
1
1
1
1
1
1
1
1
1
1
1
1
1
1
1
1
1
1
1
1
1
1
1
1
1
1
1
1
1
1
1
1
1
1
1
1
1
1
1
1
1
1
1
1
1
1
1
1
1
1
1
1
1
1
1
1
1
1
1
1
1
1
1
1
1
1
1
1
1
1
1
1
1
1
1
1
1
1
1
1
1
1
1
1
1
1
1
1
1
1
1
1
1
1
1
1
1
1
1
1
1
1
1
1
1
1
1
1
1
1
1
1
1
1
1
1
1
1
1
1
1
1
1
1
1
1
1
1
1
1
1
1
1
1
1
1
1
1
1
1
1
1
1
1
1
1
1
1
1
1
1
1
1
1
1
1
1
1
1
1
1
1
1
1
1
1
1
1
1
1
1
1
1
1
1
1
1
1
1
1
1
1
1
1
1
1
1
1
1
1
1
1
1
1
1
1
1
1
1
1
1
1
1
1
1
1
1
1
1
1
1
1
1
1
1
1
1
1
1
1
1
1
1
1
1
1
1
1
1
1
1
1
1
1
1
1
1
VECTORS force double
-6.04252 0 13.8793
6.02212 0 -2.42086
24.6069 0 -14.2289
1.39377 0 20.4643
-19.1752 0 12.0612
26.9132 0 -7.98393
-73.8701 0 -25.9632
64.9453 0 7.95911
-15.0949 0 8.11961
39.4372 0 -21.5163
-18.4358 0 -4.79397
10.8577 0 9.74228
7.67096 0 5.7137
22.0322 0 4.82282
0 0 0
-2.01355 0 0.932838
12.6382 0 -0.743866
13.1639 0 16.9702
0 0 0
9.97118 0 -46.3286
1.58639 0 -13.6213
-8.56795 0 -19.9024
4.18282 0 21.4441
-0.569746 0 1.03339
-7.77677 0 1.58131
-17.4758 0 4.56268
4.23418 0 10.586
5.17348 0 9.1391
21.9811 0 -9.73017
4.22544 0 -7.3685
-11.7682 0 -40.588
-19.2145 0 4.30981
-0.790853 0 11.4626
-8.28317 0 14.7866
11.4056 0 -12.079
-15.1243 0 10.6907
-44.7248 0 1.33167
47.0001 0 -4.45335
19.724 0 12.956
-6.89426 0 -16.3706
-23.8601 0 8.1976
0 0 0
-8.16412 0 2.28778
-29.25 0 5.15091
3.33485 0 -13.2309
-21.0893 0 -1.67538
9.46361 0 17.4356
-12.1552 0 14.1084
-12.8214 0 10.4665
19.9417 0 -10.5789
6.62865 0 5.02829
-2.08189 0 -15.2617
0.675244 0 14.4929
7.64731 0 13.0806
46.0526 0 -16.4708
8.05861 0 14.66
-58.3245 0 -37.4176
-37.5689 0 -7.3659
9.89384 0 0.232944
4.41487 0 9.29074
9.15662 0 16.6217
-20.3294 0 22.5089
-16.3321 0 -27.3206
14.2637 0 7.90403
14.3827 0 3.75167
-2.799 0 13.7005
-30.0312 0 65.2176
7.49336 0 1.17309
-25.2918 0 -37.6114
-75.097 0 -18.6872
77.7572 0 27.2304
8.17436 0 3.53427
-0.152371 0 -13.7312
17.1287 0 1.98993
11.9128 0 -1.16651
-27.0553 0 -28.1116
-21.2706 0 -7.39124
-22.204 0 38.7156
-9.73511 0 -34.8736
53.7426 0 -24.8696
21.1183 0 1.65727
0 0 0
2.47603 0 25.4152
2.49923 0 7.13474
0.357041 0 3.69266
6.04678 0 -4.40739
3.49858 0 -8.9545
8.01404 0 6.05441
0 0 0
-8.99469 0 -11.9906
-7.37776 0 26.5056
0 0 0
51.4558 0 30.0449
-4.12708 0 10.682
6.22623 0 -5.87448
-1.4525 0 -9.08667
-6.4775 0 2.32129
13.167 0 32.5088
0 0 0
-11.2895 0 -3.86547
12.868 0 -15.5554
0.396946 0 -4.2019
10.8945 0 21.5287
8.00492 0 12.2439
35.0323 0 16.7161
6.44402 0 -8.99045
-14.7745 0 8.35302
-0.561275 0 -41.4869
16.4166 0 -14.9186
-4.32233 0 -5.46523
7.48722 0 15.3794
-11.7502 0 -21.3441
35.606 0 16.768
-8.09628 0 -25.5704
-60.6451 0 0.300046
14.341 0 22.4177
3.45748 0 -8.07268
30.4611 0 38.4845
27.864 0 25.2573
-16.2721 0 10.5351
21.4441 0 2.06674
-7.20336 0 -14.5312
-53.65 0 -29.2304
53.5184 0 28.247
-9.4976 0 18.9698
1.25301 0 3.0017
-3.06149 0 1.37357
-7.11566 0 -7.14126
16.6216 0 1.72021
12.1695 0 24.1012
-0.180095 0 20.8771
-7.11241 0 -2.37075
105.771 0 -42.3363
-38.245 0 25.0322
13.341 0 11.6872
2.86032 0 -1.93906
12.0193 0 -9.41282
3.97405 0 17.0934
17.181 0 32.846
-6.50959 0 3.75504
-8.2289 0 16.4032
6.58873 0 22.1895
-30.9223 0 -33.3092
41.5281 0 7.85632
0 0 0
-15.9608 0 -2.7427
-24.9038 0 14.151
-6.13065 0 14.9651
9.40653 0 11.8952
-17.1704 0 6.24277
-15.7704 0 -30.0891
-7.3431 0 5.45986
-11.5348 0 -17.2596
52.2055 0 -79.4697
-0.282314 0 -4.78586
-4.36851 0 23.8543
3.46812 0 -9.30534
-4.91405 0 5.27502
-14.4865 0 0.454581
5.47097 0 5.96909
6.4876 0 14.2136
-3.42755 0 -16.5258
2.29191 0 -2.63937
10.1227 0 -24.5114
-9.86472 0 -24.9284
-18.9412 0 18.0347
-11.4133 0 3.59539
-29.9266 0 4.50392
-26.2817 0 -48.4555
-19.4283 0 -52.9292
-31.1729 0 65.2909
32.9134 0 -32.8894
-11.4321 0 5.39952
-18.0446 0 35.2407
-1.90179 0 -35.8009
-26.2204 0 16.0489
-49.802 0 -31.3521
44.388 0 -6.8283
-17.2548 0 -14.2576
-6.99416 0 6.84577
5.91622 0 -3.80592
-53.7441 0 57.6198
54.1823 0 -19.8438
68.954 0 -42.0407
31.5558 0 -32.7195
3.8058 0 18.2402
-16.5246 0 9.34824
-5.11104 0 4.23615
-13.9905 0 30.4018
-28.8264 0 -76.3506
57.3214 0 65.9379
-4.14675 0 14.7171
-123.428 0 17.3091
29.1116 0 -33.4719
7.90733 0 4.95355
-9.91072 0 3.66051
11.8491 0 5.81967
-35.1227 0 -39.2061
-31.6657 0 13.6725
22.2646 0 -6.67209
-9.4097 0 -71.1263
-5.30473 0 -13.3072
19.1286 0 -20.0915
61.9477 0 -88.7622
12.7781 0 6.54023
6.44302 0 11.9553
17.312 0 15.2584
5.9603 0 3.51203
23.3834 0 2.97235
-11.4736 0 -6.54897
4.39864 0 3.44883
-61.8238 0 86.2316
27.7608 0 -34.4697
52.5596 0 -93.0042
-34.0873 0 -100.301
1.76743 0 4.10299
15.1492 0 2.52448
4.20242 0 0.159583
-15.9198 0 -4.14248
83.6156 0 25.7463
-20.1954 0 4.91481
30.1037 0 -7.3015
-18.6199 0 45.383
3.25735 0 -5.13316
-4.64165 0 -1.19833
26.7239 0 -4.41013
-33.7165 0 -18.4503
22.5116 0 -17.3826
-22.8514 0 17.0528
44.4894 0 57.5051
18.5359 0 15.3107
-30.6849 0 31.5546
-7.07664 0 -33.34
7.50731 0 -18.3971
7.41375 0 23.1347
28.5981 0 20.5656
-24.6308 0 19.3231
-23.5999 0 -17.3106
38.4102 0 6.34446
6.85363 0 15.8522
20.9671 0 6.34196
-16.3018 0 -72.1244
-96.8099 0 51.8314
-36.2074 0 2.47301
-29.4176 0 -34.0724
25.3417 0 -39.0905
4.39438 0 -2.76957
-9.64684 0 -18.4545
-19.32 0 -68.8742
15.4162 0 8.6763
3.661 0 26.7111
25.3089 0 -6.27342
-18.6123 0 -9.55602
-35.2543 0 -43.9495
-14.019 0 1.66209
4.47438 0 5.10683
-11.3251 0 30.8226
-3.17389 0 -2.45143
35.6043 0 85.0691
-9.07577 0 5.6877
-20.5655 0 34.1997
-6.78412 0 6.18077
21.2701 0 0.842267
-35.6294 0 -0.100962
-32.4634 0 24.1202
32.045 0 18.6486
-9.16521 0 4.45501
-5.01088 0 0.150833
-6.99128 0 -60.4196
6.59834 0 -8.59917
-6.46551 0 -5.4937
14.2714 0 1.45881
8.37867 0 1.23312
-69.3789 0 92.5881
-160.667 0 -58.8232
-23.7997 0 15.3415
156.582 0 57.1958
-4.15691 0 1.28078
6.00925 0 16.6296
4.89311 0 -105.038
-49.3014 0 33.8623
44.8806 0 44.5018
-7.36797 0 -109.655
2.34661 0 31.1742
-28.8459 0 103.627
-18.5117 0 -6.87338
0.449043 0 4.72906
22.3187 0 -3.36976
-9.42801 0 0.451872
68.4305 0 -7.79767
-3.31332 0 -22.5171
21.3219 0 3.75508
38.0291 0 -76.9641
4.83643 0 26.4806
-32.3471 0 -24.9318
15.1831 0 -12.7086
3.95433 0 -11.7202
24.8195 0 34.8452
-28.2336 0 6.75893
1.52899 0 2.02189
-12.4906 0 -43.0985
18.0674 0 78.7095
17.9485 0 -20.0777
21.5178 0 2.86053
-2.82243 0 7.95297
-1.88377 0 -1.58692
22.974 0 54.6977
2.94311 0 -16.5267
19.0016 0 26.7568
-15.3111 0 50.7406
-25.6881 0 -22.2772
-5.20362 0 -23.7588
-20.7528 0 -28.6614
2.57753 0 0.959209
-4.24107 0 -2.38465
43.6711 0 28.4761
49.0966 0 -25.4596
-5.57917 0 4.45654
15.4777 0 -13.5669
-7.33579 0 -14.1906
-5.65947 0 -33.1403
1.71195 0 4.39569
12.4312 0 16.1185
-38.7741 0 81.7517
-10.5647 0 -2.85243
3.41371 0 -13.2472
16.807 0 -0.997967
6.21119 0 -3.14556
-7.63096 0 -5.20983
-4.96855 0 13.9679
-9.43462 0 53.8311
13.1426 0 -3.78937
39.7631 0 -48.6777
0.709937 0 3.68976
0.482141 0 -7.01265
27.7538 0 100.096
15.1494 0 -18.3407
-10.968 0 -26.1115
-25.4798 0 2.98158
-3.73082 0 34.8533
-26.028 0 -4.90193
18.3909 0 -17.9484
-13.3259 0 -51.7594
17.692 0 41.7471
8.82685 0 2.29453
14.373 0 -0.805598
-0.0425565 0 -1.62432
8.12529 0 -19.9176
7.80524 0 8.77752
35.8074 0 -55.8675
-36.1246 0 75.9855
56.8552 0 -63.042
-3.48502 0 0.305862
7.63786 0 -5.21857
27.5762 0 21.1049
-1.33098 0 11.6719
-12.0554 0 -20.1637
4.32915 0 6.29824
-2.53811 0 -3.97788
-27.9599 0 -3.05488
-10.0083 0 -22.2534
30.5309 0 22.5375
-1.97047 0 -10.1429
4.55397 0 14.3612
-20.9854 0 3.73373
-22.8699 0 -6.9975
3.37064 0 -6.10564
-2.27835 0 5.23246
-32.236 0 5.14665
29.1411 0 -11.7808
-5.18209 0 25.0934
-9.28545 0 8.25154
6.98043 0 0.868044
3.38143 0 18.8188
-21.422 0 17.6131
-80.6933 0 10.6126
33.9842 0 -35.5544
6.97879 0 4.77081
11.9431 0 8.71922
5.28692 0 50.1155
1.51861 0 3.93199
-6.55442 0 -1.65003
-138.867 0 -105.935
-14.22 0 11.6396
-21.0965 0 1.63646
-21.1391 0 -2.12061
-23.0776 0 -40.7702
3.75034 0 -11.5522
-24.8386 0 -78.3111
36.4222 0 21.4809
-1.892 0 -0.659771
-12.3009 0 11.4392
-29.0316 0 37.8498
13.1149 0 -3.10189
14.3383 0 -4.6105
-4.55386 0 -3.69396
18.6212 0 7.1833
16.1303 0 15.4762
-14.8163 0 -6.32504
43.8966 0 6.89071
-41.1536 0 -21.1856
9.94596 0 -12.5971
-12.5355 0 -11.3668
40.4214 0 17.6653
-2.1349 0 -1.04317
17.3152 0 -8.62546
-3.2207 0 19.5156
1.81271 0 -93.0424
7.91888 0 -4.37638
-8.968 0 77.8203
-46.3444 0 7.05899
-61.8347 0 51.7088
5.23653 0 -20.5143
-5.75512 0 8.08276
-31.8799 0 -38.4659
7.18441 0 -4.35821
5.76518 0 7.35725
33.5957 0 -13.3257
-32.4831 0 -22.4202
22.7539 0 25.3701
16.2957 0 14.0673
3.38698 0 24.6033
-16.3574 0 -99.6525
18.0303 0 -6.56592
-9.06958 0 -19.8596
-18.2729 0 16.9217
-11.8928 0 7.78477
48.8995 0 -7.58155
-5.26619 0 -8.81462
-0.383218 0 -9.08169
0.931474 0 -20.8207
-17.7129 0 18.8853
21.3544 0 -11.272
0.538423 0 -5.83591
-45.0064 0 -37.0781
1.8646 0 -11.0688
24.0021 0 25.2015
30.8503 0 17.9829
-21.783 0 12.2955
3.50921 0 6.11066
-5.30469 0 5.80852
-2.21657 0 -1.47185
146.299 0 116.649
9.78013 0 1.69624
-3.21873 0 -107.487
-18.2679 0 -9.12874
43.2787 0 81.5339
-3.21946 0 -19.8138
-39.703 0 -13.9274
-1.93754 0 -1.5173
8.62626 0 -10.4189
121.218 0 -77.9379
10.2191 0 4.50869
-3.70845 0 4.60899
-3.11012 0 0.489692
-65.4499 0 -26.6247
-8.17263 0 -1.37205
-14.7305 0 9.88482
0.319212 0 3.16174
10.784 0 38.6465
54.7567 0 117.686
-30.3464 0 -81.5173
-14.5213 0 27.898
-14.4329 0 -6.78249
-20.542 0 -3.84666
-10.6631 0 19.4441
-1.22396 0 -14.3912
-49.2203 0 22.5778
13.7624 0 6.44166
-42.7468 0 -102.123
2.65247 0 -3.81286
45.9281 0 29.4184
26.3453 0 -38.6498
13.7305 0 23.4338
23.9036 0 35.4443
-66.4959 0 -31.345
38.0279 0 5.99491
-36.6837 0 -74.9047
49.0299 0 29.668
2.84083 0 -23.6885
11.9937 0 -14.6551
-29.0444 0 9.17561
-22.1761 0 56.8008
33.2948 0 36.617
2.0743 0 -38.6662
2.66404 0 -34.5557
-17.4317 0 -13.7634
-19.567 0 23.2367
10.5336 0 -4.40103
1.15572 0 4.70706
-4.18396 0 -1.58937
-8.75916 0 -7.75626
-4.11167 0 11.6695
50.5949 0 -7.94761
17.8417 0 17.8339
-26.4578 0 16.1956
-19.8662 0 25.9727
24.4786 0 -12.7445
-11.7832 0 3.48924
-1.40731 0 5.69627
-11.2845 0 -4.84911
15.4213 0 3.88762
-12.235 0 16.4238
8.11395 0 -49.502
-10.269 0 13.0497
-38.8798 0 32.6325
2.27817 0 13.3385
13.8682 0 40.5008
-20.0544 0 -6.37088
41.5989 0 82.3565
-9.63812 0 -54.663
-29.3397 0 53.6438
-93.7705 0 110.398
-29.6293 0 -12.6175
63.6857 0 -3.41721
-6.46436 0 -1.81389
-24.0775 0 -5.50753
23.3593 0 -5.8188
-19.5022 0 0.300157
15.9891 0 -8.79009
2.75169 0 16.5305
-8.86034 0 85.33
29.219 0 -17.4429
9.33309 0 -4.81125
9.01058 0 9.50697
12.4519 0 -19.1682
-4.59279 0 -7.94017
73.7507 0 -59.3848
5.8985 0 6.52375
-21.1335 0 -48.845
-4.41954 0 -1.50182
-28.6755 0 37.5191
4.0138 0 -2.029
-15.4683 0 8.60028
-9.00686 0 -60.9778
18.1664 0 48.6626
3.23758 0 7.16214
-3.85812 0 44.3469
54.0409 0 -68.9829
-19.1999 0 33.2571
13.4396 0 -8.87225
-12.9564 0 -22.0279
35.1612 0 24.4503
-5.55642 0 57.012
15.9785 0 -7.17389
7.14619 0 -120.533
10.889 0 -3.35777
-38.1728 0 -4.64902
-71.5332 0 64.0319
37.6263 0 -72.0455
11.7124 0 -69.4388
-18.2402 0 -28.973
41.0768 0 -21.7991
-25.7664 0 7.94949
20.9404 0 -73.09
-70.3369 0 -0.722355
77.6508 0 26.0032
14.7893 0 29.5747
26.3053 0 -14.1975
-1.24424 0 -5.09771
-26.0258 0 12.4706
-7.94179 0 -15.2317
-6.51137 0 -17.0153
10.0593 0 -38.1587
8.86625 0 40.9132
-28.6211 0 -25.3372
-30.9205 0 10.8
-1.25111 0 29.7596
-4.49832 0 -13.758
-3.01757 0 -21.1874
11.7542 0 3.12193
3.97596 0 -15.7361
27.8212 0 -21.5682
-1.18709 0 -13.1966
2.64338 0 22.2726
-3.1456 0 0.000917799
-3.4646 0 7.75753
-60.3672 0 -118.405
5.50828 0 -13.0492
-21.4485 0 34.8778
5.948 0 33.895
16.6629 0 -38.4531
-13.3173 0 5.54129
11.2372 0 2.38254
-16.0039 0 17.5457
-75.9119 0 77.6273
-6.53952 0 -5.89098
-46.5754 0 100.976
17.1976 0 37.7598
-2.33917 0 -5.58904
-8.62887 0 -7.51241
7.1237 0 5.6854
-8.10533 0 -0.677121
-1.14406 0 14.2961
-18.7773 0 -44.6
9.57597 0 4.81587
-9.49337 0 -8.08934
-57.5601 0 51.2703
-7.04558 0 5.05226
-11.8917 0 5.98397
11.1621 0 10.0526
-12.2589 0 8.67131
15.0684 0 -21.4239
21.5819 0 18.059
-5.21754 0 -4.28351
41.0367 0 -21.1133
32.2258 0 -114.297
32.2697 0 47.4461
-10.8007 0 2.75153
-12.5618 0 42.0616
-11.1547 0 2.90055
-30.3924 0 48.9895
40.6024 0 -28.8246
-14.7304 0 29.4544
-64.9814 0 -38.0346
17.0596 0 42.4486
5.55475 0 -16.0079
8.58033 0 -0.816253
20.2993 0 1.01321
-30.8733 0 -34.5609
9.5302 0 -90.4292
-11.6697 0 6.46401
21.3809 0 -19.0843
-25.4063 0 9.50651
-5.82321 0 -17.6712
-6.06336 0 -21.2772
63.4008 0 -1.37883
51.4929 0 -75.4665
-24.4319 0 -80.1087
-8.74645 0 -1.15507
-11.7824 0 7.57945
7.14855 0 8.99659
-1.85333 0 4.89735
6.79063 0 -30.4717
-12.6453 0 -0.492066
77.6259 0 22.5135
-9.75931 0 12.9256
9.67072 0 -53.5967
4.97057 0 -30.1075
-7.32621 0 -7.271
-44.4207 0 14.7997
92.4026 0 -6.61079
-28.93 0 6.63971
-105.96 0 -4.86014
-4.15273 0 20.3284
65.2807 0 21.0413
20.0466 0 -19.539
6.24895 0 -5.80884
90.3347 0 -14.0969
-3.80788 0 5.18382
-77.9604 0 -25.0491
13.7695 0 9.27777
12.778 0 -3.32216
-33.1212 0 -18.3128
7.59184 0 50.8106
-3.42678 0 1.57223
-8.51489 0 15.5089
-9.1473 0 -23.6955
-23.1243 0 7.27513
-0.790394 0 -22.8663
13.851 0 8.72697
-69.7934 0 27.6868
-10.966 0 9.14497
69.766 0 -10.302
-23.4769 0 8.43506
11.4524 0 -1.39272
12.5591 0 -44.5888
10.7092 0 16.8481
29.7863 0 43.7626
49.3809 0 151.421
3.28902 0 -6.01919
-8.30967 0 -21.8671
0.801342 0 -4.75876
-0.0233469 0 -22.2889
7.94685 0 38.343
-4.4903 0 2.48204
-5.22046 0 14.5405
-25.7509 0 -8.8962
19.3012 0 -1.02697
-2.00618 0 -21.5713
14.2683 0 106.101
-15.8586 0 21.2586
-48.5456 0 -4.50105
104.064 0 20.3368
-46.7905 0 -67.2058
-3.90454 0 20.3764
11.2507 0 39.1232
-132.212 0 122.663
15.7398 0 51.1721
-1.93833 0 -9.65262
-10.5466 0 -0.721278
-16.1967 0 8.62761
2.77503 0 21.9397
-40.4957 0 -23.9407
-46.8113 0 -54.9223
7.74604 0 -5.32848
23.984 0 -10.8029
-9.0211 0 50.2661
-53.175 0 -39.0299
11.8417 0 -0.95919
21.2168 0 33.2661
-15.8487 0 -7.4565
18.9382 0 14.3544
2.60366 0 21.7643
-51.7524 0 -30.5932
-15.9604 0 7.29917
-34.9138 0 -19.4609
-26.916 0 -38.5896
-2.18706 0 22.0473
2.8199 0 11.8664
104.821 0 31.5375
11.4137 0 24.4597
-0.67953 0 -9.79916
11.4678 0 7.94603
-11.4082 0 -9.42613
24.8839 0 18.6551
-4.54423 0 -15.8862
-1.12504 0 13.9129
-2.22855 0 10.4065
11.8238 0 2.00024
0.699573 0 3.88853
-10.4547 0 -12.8584
2.43115 0 -5.68911
-6.06911 0 5.67225
-7.55111 0 21.6699
-68.5842 0 106.633
-92.8694 0 -55.9819
-34.1156 0 -42.727
32.9293 0 -79.7269
-1.26401 0 -14.0699
-7.93141 0 22.7474
-13.3645 0 -7.82233
-17.627 0 26.7974
-14.1918 0 -11.7613
-22.3316 0 -24.3846
49.2244 0 30.848
-0.534935 0 12.4418
7.47471 0 10.3307
12.1576 0 -5.59072
-0.359074 0 3.81198
10.423 0 16.8745
-2.72581 0 11.2527
39.6552 0 -41.7792
19.3138 0 3.74723
3.35908 0 -0.044562
-74.7379 0 -6.30068
10.2136 0 -8.44857
-17.0869 0 13.2574
120.986 0 -62.3226
35.0371 0 20.8135
3.6061 0 -0.603123
9.88924 0 -9.11766
11.1153 0 1.02356
10.0699 0 16.5673
-11.7062 0 1.71197
-19.0011 0 3.12087
16.7926 0 12.3885
25.0907 0 -39.0421
21.0419 0 -10.1084
-2.15778 0 -44.1067
1.25592 0 -10.3543
1.5317 0 -4.40777
11.8721 0 -17.4846
-6.12846 0 12.7199
0.538549 0 3.74736
11.8252 0 -4.54253
36.6126 0 17.1864
1.47385 0 -0.749365
30.9606 0 11.678
6.46421 0 -42.735
42.9072 0 -3.7395
15.334 0 -28.642
0.114435 0 -34.7357
6.97918 0 -13.9119
-8.20718 0 -14.2626
2.31571 0 11.7344
10.0404 0 6.78545
-37.3761 0 -11.3323
-10.1124 0 13.9562
-38.1831 0 -43.0567
-9.40118 0 14.4983
5.48282 0 -20.6735
14.6705 0 17.3928
3.49037 0 -18.2838
2.81467 0 -2.45104
-15.717 0 -22.9391
-26.9382 0 58.2731
-1.19626 0 64.775
-3.80141 0 -5.4969
32.4161 0 -59.0513
-2.94719 0 -15.5096
0.693868 0 15.1856
2.3268 0 1.45393
-59.9707 0 -18.9003
27.5166 0 -46.1393
-9.52578 0 0.835104
-32.0564 0 41.5852
-26.6365 0 -3.10896
36.9731 0 -83.5153
7.26309 0 -10.216
2.23185 0 22.8435
-10.784 0 -7.6136
24.1459 0 8.17541
-9.96307 0 1.40186
-5.5365 0 14.9213
-8.21481 0 -89.6713
7.11887 0 -42.8233
-0.43667 0 20.9096
-5.86908 0 -1.09257
1.61476 0 5.25038
0.791742 0 15.8565
0.517888 0 12.0648
6.49827 0 4.33639
22.5705 0 5.12952
33.3228 0 62.3428
-8.40731 0 -9.77551
13.1461 0 -15.6579
-25.047 0 42.9533
-17.6331 0 15.7352
7.08662 0 8.50547
4.95623 0 -22.7805
-6.4784 0 0.636285
19.8465 0 34.3605
7.3947 0 -16.4127
-8.38352 0 9.31732
7.85833 0 -15.4119
-8.2198 0 -14.9649
-12.8012 0 -9.4734
-22.0517 0 30.4439
2.58693 0 8.33576
-1.86785 0 16.6524
-11.9159 0 -1.48803
6.59468 0 38.62
-12.0668 0 8.49151
9.43494 0 -4.43261
0.364568 0 -18.1203
-11.1453 0 14.8667
-11.7555 0 2.00671
76.9995 0 48.6214
-7.10194 0 -12.4289
-5.52647 0 -0.265976
-28.8179 0 -24.7238
-2.67537 0 -19.2042
13.5758 0 10.2645
27.5312 0 26.1474
4.21073 0 2.74009
45.9597 0 68.5379
12.1059 0 4.33252
-4.3619 0 -0.424082
-23.496 0 -46.6376
2.87948 0 -10.1066
16.726 0 23.6449
-0.292458 0 30.1276
-9.15702 0 3.48574
-12.7117 0 2.63169
69.9834 0 45.0648
10.4325 0 -11.8743
-26.0601 0 -11.3495
-24.0755 0 110.041
18.4534 0 -6.75223
-26.7029 0 60.3683
16.305 0 -66.9046
-21.5058 0 33.7097
-9.49329 0 20.9393
2.4452 0 6.39609
5.62209 0 93.021
31.2243 0 52.8869
-0.402515 0 7.8279
7.09202 0 -14.4519
-6.19679 0 10.3387
16.1901 0 -9.39951
-16.9819 0 -6.45698
-6.25348 0 -7.04213
-14.8547 0 -0.693895
-11.4122 0 -27.7503
7.35667 0 -6.49355
-37.4973 0 -7.5397
-6.46463 0 25.8004
-11.3522 0 0.181496
-6.53224 0 10.0382
42.2677 0 -8.06915
2.7076 0 80.0919
-0.506071 0 6.10665
-9.70396 0 -9.79374
-14.2283 0 -9.62824
8.45644 0 -1.71591
-6.98646 0 -2.35491
-5.42458 0 10.7085
-40.5866 0 -8.84147
3.54102 0 -4.6145
-23.9027 0 -3.31745
60.7328 0 -79.5309