# vtk DataFile Version 3.0
SiWiRVisFile
ASCII
DATASET UNSTRUCTURED_GRID
POINTS 1600 DOUBLE
76.7614 100 72.448
75.8436 100 72.9755
76.729 100 73.6899
78.6261 100 73.4082
79.6008 100 73.7881
80.5321 100 74.3852
82.8187 100 73.9183
83.8455 100 74.5083
84.8502 100 74.767
83.8707 100 73.3627
92.29 100 69.4519
91.3139 100 69.0451
91.3689 100 70.0931
90.009 100 68.9722
85.8877 100 68.3281
90.2272 100 60.0493
91.345 100 59.8357
92.3235 100 58.0936
88.7431 100 53.1182
93.9833 100 57.6304
105.686 100 38.3604
106.608 100 37.3974
106.148 100 36.1431
107.158 100 36.4395
105.069 100 35.8937
111.869 100 37.1562
111.058 100 30.4184
111.672 100 28.9566
110.536 100 31.7897
111.69 100 31.2981
112.985 100 30.9877
113.991 100 31.3964
112.581 100 29.9349
113.756 100 30.2322
113.374 100 36.6318
119.322 100 36.0584
117.009 100 36.398
118.155 100 36.1305
117.767 100 37.3979
118.464 100 38.1036
129.751 100 57.1441
135.749 100 53.1182
131.842 100 58.4327
133.233 100 60.4365
134.262 100 59.8592
135.685 100 69.5272
134.679 100 68.3635
134.262 100 70.863
133.741 100 69.0205
133.363 100 70.0015
140.536 100 73.2018
139.773 100 74.6572
140.804 100 74.2839
141.987 100 73.8545
143.77 100 74.2477
145.019 100 73.6937
146.063 100 73.3785
147.709 100 73.5213
148.781 100 73.1134
147.788 100 72.478
74.8971 100 73.5015
75.7675 100 74.3069
77.7527 100 74.1088
78.7426 100 74.604
79.7263 100 75.1
81.6528 100 74.667
82.8297 100 75.1105
83.814 100 75.6202
85.211 100 75.7362
86.4562 100 75.5638
87.4508 100 76.1366
92.0071 100 68.1777
90.2707 100 70.2518
90.8188 100 66.178
91.5554 100 61.6855
90.8147 100 67.9869
92.3283 100 59.3144
93.3073 100 58.5152
94.6687 100 58.534
97.3417 100 56.9799
105.329 100 36.985
97.0824 100 43.9906
106.309 100 46.2879
110.347 100 34.8675
108.174 100 35.6399
110.776 100 37.0235
110.239 100 35.9389
109.248 100 35.4321
107.257 100 28.0901
111.952 100 32.3171
113.129 100 32.1669
117.47 100 28.1405
113.472 100 33.8633
115.697 100 35.5071
114.919 100 37.1196
115.866 100 36.5494
114.327 100 34.792
118.286 100 46.3955
127.41 100 43.9906
118.793 100 36.995
126.636 100 57.4088
129.025 100 58.5327
130.796 100 57.6171
133.395 100 59.3101
133.084 100 67.5892
132.69 100 61.3295
132.844 100 64.9377
134.664 100 69.739
132.356 100 68.3785
137.628 100 76.2376
138.249 100 75.3191
139.481 100 75.7979
140.603 100 75.5358
141.612 100 75.1545
142.666 100 74.7336
144.677 100 74.8839
145.862 100 74.557
146.914 100 74.1907
148.613 100 74.1673
149.837 100 73.4453
74.872 100 74.8571
75.9674 100 75.4158
76.803 100 74.7696
77.8868 100 75.2909
78.8643 100 75.7724
80.8315 100 75.4618
82.1312 100 75.9983
83.0852 100 76.5157
84.2529 100 76.7056
85.4705 100 76.7754
86.5732 100 76.8575
87.311 100 77.8712
89.1163 100 76.7646
91.4224 100 67.1552
91.4456 100 64.0932
93.6264 100 62.7801
92.6911 100 60.5996
93.5164 100 59.6214
94.6841 100 59.7036
96.1223 100 56.6143
98.1421 100 56.3074
104.587 100 48.0124
105.57 100 47.3977
106.678 100 47.6965
100.456 100 44.6445
107.513 100 47.0848
107.322 100 45.8399
105.231 100 45.9956
110.652 100 33.7747
111.721 100 34.0483
112.54 100 33.2159
113.981 100 32.8561
121.032 100 45.6108
117.561 100 45.492
117.187 100 47.2128
121.218 100 46.7456
118.274 100 48.3756
118.958 100 47.2466
120.555 100 48.6091
125.952 100 56.5671
128.585 100 56.8996
130.121 100 58.6183
132.33 100 59.4966
131.663 100 60.4787
132.685 100 62.5256
132.257 100 63.8255
132.737 100 66.3977
135.7 100 76.5339
137.15 100 77.3195
138.24 100 77.1448
139.307 100 76.9592
140.408 100 76.5989
141.426 100 76.2672
142.544 100 75.888
143.66 100 75.4728
145.723 100 75.701
146.698 100 75.219
147.789 100 74.8341
148.637 100 75.4283
149.488 100 74.709
75.1596 100 76.1465
76.0638 100 76.659
76.9327 100 75.9287
78.0455 100 76.4114
79.9422 100 76.165
81.067 100 76.5791
82.2483 100 77.2131
83.232 100 77.8351
84.8144 100 77.6863
85.89 100 77.8496
86.3687 100 78.9859
88.4203 100 78.1936
88.035 100 77.0568
92.2921 100 66.3021
91.8103 100 65.274
92.5335 100 64.3041
93.7664 100 61.7162
92.6176 100 62.0078
93.8961 100 60.592
95.3072 100 60.5806
95.8132 100 58.7097
98.3794 100 57.3467
104.5 100 46.8287
105.523 100 52.3563
105.77 100 48.5774
105.985 100 50.0819
108.464 100 49.1135
110.62 100 49.337
108.471 100 45.7414
111.674 100 35.3047
113.249 100 35.4676
116.592 100 46.3533
115.189 100 47.669
116.023 100 48.6482
118.124 100 49.4539
119.365 100 48.5501
119.24 100 49.8026
120.184 100 46.5038
125.395 100 57.5511
128.229 100 59.1033
129.293 100 60.2616
130.639 100 60.7242
131.483 100 61.6207
131.292 100 62.9163
131.007 100 64.0203
131.793 100 65.7845
131.989 100 67.1358
136.612 100 75.8056
136.707 100 78.5246
137.947 100 78.2905
139.039 100 78.0085
140.064 100 77.7592
141.12 100 77.4789
142.356 100 76.9061
143.427 100 76.6506
144.654 100 76.1308
146.54 100 76.4667
147.633 100 76.0087
148.498 100 76.6224
149.506 100 76.1189
75.2423 100 77.3812
76.324 100 77.7128
77.0563 100 76.9787
79.0621 100 77.0158
80.0622 100 77.4102
81.2191 100 77.5965
82.2943 100 78.269
83.1749 100 78.8754
84.2343 100 78.5005
85.2448 100 78.8277
86.2138 100 80.374
89.4466 100 78.8369
90.1887 100 76.2733
94.7943 100 64.5202
92.9177 100 65.3816
94.9075 100 62.6125
96.2968 100 62.4934
95.5519 100 61.6502
96.1885 100 59.8654
97.0053 100 58.8433
96.5759 100 57.8725
102.819 100 55.9942
104.748 100 50.8225
106.977 100 50.3056
106.734 100 48.9338
108.134 100 50.3222
109.34 100 50.3313
110.407 100 50.5121
107.658 100 48.2124
110.975 100 38.0841
112.146 100 38.9295
116.266 100 47.6381
113.977 100 50.3712
115.103 100 49.633
116.147 100 49.9018
117.172 100 48.8545
117.411 100 50.3198
117.63 100 51.6334
121.619 100 55.4198
127.647 100 57.8877
127.108 100 58.9798
128.22 100 60.271
129.501 100 61.4294
130.458 100 61.9909
129.06 100 62.7282
130.559 100 66.0395
130.458 100 64.9655
136.064 100 77.6443
135.639 100 78.6932
138.043 100 80.1628
138.559 100 79.1385
139.658 100 78.9072
141.154 100 78.6372
142.094 100 77.9101
143.208 100 77.752
144.285 100 77.2549
145.357 100 76.9883
147.418 100 77.1789
148.29 100 77.7571
149.385 100 77.3156
75.2608 100 78.4243
76.3217 100 78.9674
77.3089 100 78.3049
78.1004 100 77.496
79.2474 100 78.1597
80.2703 100 78.6268
81.3412 100 78.7466
82.2777 100 79.3733
83.2243 100 80.0036
84.2265 100 79.7097
85.242 100 79.8988
87.6116 100 78.919
90.1816 100 79.5991
88.5387 100 75.9547
91.1996 100 75.7271
94.1589 100 63.745
96.4722 100 63.6543
97.5251 100 62.6684
96.9792 100 61.5343
97.2172 100 60.0458
98.1813 100 58.3768
100.717 100 57.6902
104.159 100 54.4274
104.768 100 53.4141
105.913 100 51.1463
106.997 100 51.3768
108.611 100 52.8702
108.862 100 51.2964
112.166 100 49.7471
111.336 100 48.5288
114.65 100 48.6847
113.514 100 51.5929
115.179 100 50.894
115.597 100 52.3386
116.582 100 51.2283
118.577 100 50.6943
118.741 100 51.8955
121.293 100 54.3532
124.19 100 58.5226
126.225 100 58.4013
127.163 100 60.0658
128.411 100 61.3154
127.805 100 62.3209
128.249 100 63.5106
130.233 100 63.2729
134.292 100 75.5649
135.846 100 74.0751
134.804 100 79.7963
137.114 100 79.5191
139.328 100 79.9197
140.579 100 79.7763
141.262 100 80.6104
141.679 100 79.6386
142.732 100 78.8277
144.086 100 78.5395
145.244 100 78.1172
146.312 100 77.6477
147.381 100 78.3125
148.271 100 79.0067
149.19 100 78.4416
74.1961 100 78.8588
75.0755 100 79.61
77.4709 100 79.4016
78.336 100 78.7564
79.3319 100 79.2658
79.3245 100 82.0919
81.4096 100 80.0028
82.341 100 80.6573
83.3227 100 81.1326
84.5339 100 80.7597
85.5276 100 81.1848
88.541 100 79.6746
90.3864 100 80.7421
89.5512 100 75.0974
95.4985 100 65.4106
95.3007 100 63.6194
96.464 100 64.7521
98.4191 100 63.5514
98.009 100 60.854
98.1584 100 59.5454
99.5927 100 58.4729
101.84 100 57.3204
103.888 100 55.7943
106.566 100 52.5197
109.153 100 54.0124
109.618 100 52.338
107.904 100 55.4243
110.686 100 51.8411
107.04 100 56.2659
108.65 100 56.5145
116.83 100 56.9794
116.552 100 55.6323
114.515 100 52.0171
115.438 100 56.1041
115.081 100 53.3439
116.142 100 53.3336
116.722 100 52.3772
120.419 100 55.2094
122.101 100 56.8015
125.266 100 58.8428
126.077 100 59.479
127.306 100 61.1077
126.691 100 62.0744
127.372 100 64.2491
129.467 100 64.4243
129.414 100 65.5563
135.669 100 75.2336
130.688 100 81.661
136.014 100 79.8564
138.952 100 80.9312
139.957 100 80.7654
141.055 100 81.7545
142.432 100 80.6342
143.167 100 79.8687
145.144 100 80.6217
145.138 100 79.3271
146.217 100 78.8963
147.135 100 79.5234
149.359 100 79.5197
150.249 100 78.8649
73.769 100 79.9123
75.0779 100 80.7685
76.1141 100 79.9792
77.2534 100 80.4672
78.353 100 80.0517
78.2586 100 81.1741
80.3685 100 80.3389
81.3306 100 81.1726
82.1108 100 81.8299
83.9917 100 82.1135
85.1683 100 82.4548
86.2233 100 82.3695
87.1543 100 79.8976
87.156 100 81.72
87.2565 100 82.8782
91.3637 100 79.6933
96.5168 100 65.9244
97.4693 100 64.0408
99.8257 100 61.3608
98.6013 100 62.108
99.0552 100 60.6419
99.4688 100 59.5672
104.824 100 56.6173
105.966 100 53.4279
107.551 100 53.2416
108.943 100 55.0903
108.18 100 54.3849
105.656 100 57.2755
106.725 100 57.4172
109.485 100 59.028
115.721 100 57.3861
119.358 100 57.2772
119.87 100 58.2602
116.699 100 54.5468
115.627 100 54.732
117.193 100 53.6006
117.863 100 52.6753
121.108 100 56.3267
124.713 100 59.719
126.219 100 60.6203
125.489 100 61.9089
125.771 100 63.004
126.975 100 63.1763
128.434 100 64.9199
131.392 100 80.6449
137.347 100 82.3081
138.027 100 81.5322
136.915 100 80.6085
138.578 100 82.4866
139.504 100 82.9865
139.488 100 81.8304
142.248 100 81.7608
143.515 100 81.8296
144.083 100 80.7547
145.921 100 81.4871
145.964 100 79.9407
146.795 100 80.721
147.996 100 80.0866
149.071 100 80.6435
150.369 100 80.0242
74.0163 100 81.2418
75.2051 100 82.2791
76.2189 100 81.1339
77.3192 100 81.6016
77.8733 100 83.7465
76.1792 100 84.2885
78.2346 100 82.2968
80.3505 100 81.7372
81.3462 100 82.689
80.2367 100 82.7753
82.4301 100 82.8603
84.3305 100 83.5487
85.3459 100 83.5444
86.479 100 83.7837
88.3609 100 83.3525
90.5037 100 78.5069
97.5599 100 66.7177
97.5285 100 65.3077
99.726 100 63.139
100.889 100 63.4471
100.74 100 59.2017
[...]
POINT_DATA 1600
SCALARS mass double
LOOKUP_TABLE default
1
1
1
1
1
1
1
1
1
1
1
1
1
1
1
1
1
1
1
1
1
1
1
1
1
1
1
1
1
1
1
1
1
1
1
1
1
1
1
1
1
1
1
1
1
1
1
1
1
1
1
1
1
1
1
1
1
1
1
1
1
1
1
1
1
1
1
1
1
1
1
1
1
1
1
1
1
1
1
1
1
1
1
1
1
1
1
1
1
1
1
1
1
1
1
1
1
1
1
1
1
1
1
1
1
1
1
1
1
1
1
1
1
1
1
1
1
1
1
1
1
1
1
1
1
1
1
1
1
1
1
1
1
1
1
1
1
1
1
1
1
1
1
1
1
1
1
1
1
1
1
1
1
1
1
1
1
1
1
1
1
1
1
1
1
1
1
1
1
1
1
1
1
1
1
1
1
1
1
1
1
1
1
1
1
1
1
1
1
1
1
1
1
1
1
1
1
1
1
1
1
1
1
1
1
1
1
1
1
1
1
1
1
1
1
1
1
1
1
1
1
1
1
1
1
1
1
1
1
1
1
1
1
1
1
1
1
1
1
1
1
1
1
1
1
1
1
1
1
1
1
1
1
1
1
1
1
1
1
1
1
1
1
1
1
1
1
1
1
1
1
1
1
1
1
1
1
1
1
1
1
1
1
1
1
1
1
1
1
1
1
1
1
1
1
1
1
1
1
1
1
1
1
1
1
1
1
1
1
1
1
1
1
1
1
1
1
1
1
1
1
1
1
1
1
1
1
1
1
1
1
1
1
1
1
1
1
1
1
1
1
1
1
1
1
1
1
1
1
1
1
1
1
1
1
1
1
1
1
1
1
1
1
1
1
1
1
1
1
1
1
1
1
1
1
1
1
1
1
1
1
1
1
1
1
1
1
1
1
1
1
1
1
1
1
1
1
1
1
1
1
1
1
1
1
1
1
1
1
1
1
1
1
1
1
1
1
1
1
1
1
1
1
1
1
1
1
1
1
1
1
1
1
1
1
1
1
1
1
1
1
1
1
1
1
1
1
1
1
1
1
1
1
1
1
1
1
1
1
1
1
1
1
1
1
1
1
1
1
1
1
1
1
1
1
1
1
1
1
1
1
1
1
1
1
1
1
1
1
1
1
1
1
1
1
1
1
1
1
1
1
1
1
1
1
1
1
1
1
1
1
1
1
1
1
1
1
1
1
1
1
1
1
1
1
1
1
1
1
1
1
1
1
1
1
1
1
1
1
1
1
1
1
1
1
1
1
1
1
1
1
1
1
1
1
1
1
1
1
1
1
1
1
1
1
1
1
1
1
1
1
1
1
1
1
1
1
1
1
1
1
1
1
1
1
1
1
1
1
1
1
1
1
1
1
1
1
1
1
1
1
1
1
1
1
1
1
1
1
1
1
1
1
1
1
1
1
1
1
1
1
1
1
1
1
1
1
1
1
1
1
1
1
1
1
1
1
1
1
1
1
1
1
1
1
1
1
1
1
1
1
1
1
1
1
1
1
1
1
1
1
1
1
1
1
1
1
1
1
1
1
1
1
1
1
1
1
1
1
1
1
1
1
1
1
1
1
1
1
1
1
1
1
1
1
1
1
1
1
1
1
1
1
1
1
1
1
1
1
1
1
1
1
1
1
1
1
1
1
1
1
1
1
1
1
1
1
1
1
1
1
1
1
1
1
1
1
1
1
1
1
1
1
1
1
1
1
1
1
1
1
1
1
1
1
1
1
1
1
1
1
1
1
1
1
1
1
1
1
1
1
1
1
1
1
1
1
1
1
1
1
1
1
1
1
1
1
1
1
1
1
1
1
1
1
1
1
1
1
1
1
1
1
1
1
1
1
1
1
1
1
1
1
1
1
1
1
1
1
1
1
1
1
1
1
1
1
1
1
1
1
1
1
1
1
1
1
1
1
1
1
1
1
1
1
1
1
1
1
1
1
1
1
1
1
1
1
1
1
1
1
1
1
1
1
1
1
1
1
1
1
1
1
1
1
1
1
1
1
1
1
1
1
1
1
1
1
1
1
1
1
1
1
1
1
1
1
1
1
1
1
1
1
1
1
1
1
1
1
1
1
1
1
1
1
1
1
1
1
1
1
1
1
1
1
1
1
1
1
1
1
1
1
1
1
1
1
1
1
1
1
1
1
1
1
1
1
1
1
1
1
1
1
1
1
1
1
1
1
1
1
1
1
1
1
1
1
1
1
1
1
1
1
1
1
1
1
1
1
1
1
1
1
1
1
1
1
1
1
1
1
1
1
1
1
1
1
1
1
1
1
1
1
1
1
1
1
1
1
1
1
1
1
1
1
1
1
1
1
1
1
1
1
1
1
1
1
1
1
1
1
1
1
1
1
1
1
1
1
1
1
1
1
1
1
1
1
1
1
1
1
1
1
1
1
1
1
1
1
1
1
1
1
1
1
1
1
1
1
1
1
1
1
1
1
1
1
1
1
1
1
1
1
1
1
1
1
1
1
1
1
1
1
1
1
1
1
1
1
1
1
1
1
1
1
1
1
1
1
1
1
1
1
1
1
1
1
1
1
1
1
1
1
1
1
1
1
1
1
1
1
1
1
1
1
1
1
1
1
1
1
1
1
1
1
1
1
1
1
1
1
1
1
1
1
1
1
1
1
1
1
1
1
1
1
1
1
1
1
1
1
1
1
1
1
1
1
1
1
1
1
1
1
1
1
1
1
1
1
1
1
1
1
1
1
1
1
1
1
1
1
1
1
1
1
1
1
1
1
1
1
1
1
1
1
1
1
1
1
1
1
1
1
1
1
1
1
1
1
1
1
1
1
1
1
1
1
1
1
1
1
1
1
1
1
1
1
1
1
1
1
1
1
1
1
1
1
1
1
1
1
1
1
1
1
1
1
1
1
1
1
1
1
1
1
1
1
1
1
1
1
1
1
1
1
1
1
1
1
1
1
1
1
1
1
1
1
1
1
1
1
1
1
1
1
1
1
1
1
1
1
1
1
1
1
1
1
1
1
1
1
1
1
1
1
1
1
1
1
1
1
1
1
1
1
1
1
1
1
1
1
1
1
1
1
1
1
1
1
1
1
1
1
1
1
1
1
1
1
1
1
1
1
1
1
1
1
1
1
1
1
1
1
1
1
1
1
1
1
1
1
1
1
1
1
1
1
1
1
1
1
1
1
1
1
1
1
1
1
1
1
1
1
1
1
1
1
1
1
1
1
1
1
1
1
1
1
1
1
1
1
1
1
1
1
1
1
1
1
1
1
1
1
1
1
1
1
1
1
1
1
1
1
1
1
1
1
1
1
1
1
1
1
1
1
1
1
1
1
1
1
1
1
1
1
1
1
1
1
1
1
1
1
1
1
1
1
1
1
1
1
1
1
1
1
1
1
1
1
1
1
1
1
1
1
1
1
1
1
1
1
1
1
1
1
1
1
1
1
1
1
1
1
1
1
1
1
1
1
1
1
1
1
1
1
1
1
1
1
1
1
1
1
1
1
1
1
1
1
1
1
1
1
1
1
1
1
1
1
1
1
1
1
1
1
1
1
1
1
1
1
1
1
1
1
1
1
1
1
1
1
1
1
1
1
1
1
1
1
1
1
1
1
1
1
1
1
1
1
1
1
1
1
1
1
1
1
1
1
1
VECTORS force double
29.4317 0 -2.45812
-12.0201 0 23.2018
-13.1241 0 -28.1692
-42.5661 0 -4.0105
31.0283 0 33.5081
23.6285 0 -7.82953
11.2137 0 17.0911
-70.9354 0 -20.2797
24.3412 0 -35.7802
-8.34458 0 13.4786
28.5105 0 2.00544
-54.1983 0 -59.7573
4.76678 0 39.3166
23.3358 0 3.28877
0 0 0
4.58468 0 -0.37161
-0.853588 0 4.94872
-19.7394 0 3.11432
0 0 0
1.68561 0 2.44526
5.41433 0 -15.544
-23.4002 0 -0.595386
-35.531 0 6.46073
48.2862 0 -0.866238
-3.88824 0 -0.764669
3.00104 0 7.3261
-5.35959 0 -11.3565
5.6918 0 11.9729
18.7438 0 -7.80159
4.0174 0 -24.2929
-38.379 0 21.5847
4.47044 0 6.61478
-0.433903 0 1.88425
3.29401 0 -4.74594
-1.20091 0 -7.40356
0.542712 0 -16.7847
7.75733 0 6.78318
-16.6434 0 -4.83763
-108.979 0 -117.57
100.225 0 91.2218
-6.43835 0 9.70153
0 0 0
-5.38548 0 3.63792
20.5642 0 -55.9317
50.4725 0 43.1903
43.7296 0 -13.3633
-3.76537 0 15.536
-4.59129 0 -20.296
20.5619 0 -40.2703
4.30767 0 42.2328
1.82812 0 3.02927
-2.82393 0 20.5716
26.8264 0 16.3463
-18.4403 0 10.8148
-7.93276 0 11.2474
-14.4961 0 28.6009
20.8256 0 15.6322
38.0628 0 19.7183
-13.9405 0 -27.9125
11.0662 0 -37.2393
-4.57429 0 25.1579
36.651 0 -37.2566
-5.22844 0 15.8007
13.0832 0 -13.2504
2.34706 0 -11.4377
10.0112 0 10.0826
-6.41603 0 -12.5841
16.3751 0 13.783
12.2191 0 39.1754
-9.63212 0 19.4167
-20.0393 0 -6.68395
-11.9086 0 -2.89974
-3.12513 0 -13.7717
17.4715 0 0.151243
-0.424402 0 -5.94336
-30.4037 0 71.1371
26.8913 0 -7.17495
22.5037 0 22.7516
-5.57403 0 11.3593
-59.1235 0 35.8935
19.195 0 3.75894
0 0 0
-2.0062 0 22.4626
3.41507 0 -16.4539
-19.4172 0 9.44892
-15.5961 0 -31.1495
10.0934 0 30.0278
19.2309 0 -8.79338
0 0 0
4.55203 0 16.9472
-21.1281 0 -10.1576
0 0 0
2.35227 0 6.81914
-7.75582 0 -34.22
-7.52598 0 -0.389709
18.0751 0 32.0922
-14.1252 0 -0.316011
-23.2684 0 -11.0594
0 0 0
5.6112 0 39.6622
6.48899 0 -2.88972
129.985 0 -108.139
-4.10346 0 14.1176
-46.2916 0 -37.477
5.67389 0 -26.942
-45.0089 0 45.3061
-14.779 0 1.9287
-69.6414 0 7.8328
-12.3102 0 7.84214
-5.62291 0 8.40418
13.4269 0 2.6595
6.25115 0 4.55422
-31.3134 0 -32.6413
22.8976 0 -14.8204
17.4733 0 16.2716
19.0925 0 11.9977
-41.579 0 -23.3512
-46.1727 0 -20.6039
-30.2796 0 -19.0592
-6.16512 0 16.2101
-19.3756 0 27.3259
-35.8058 0 13.3708
43.4182 0 3.51404
-34.2608 0 -9.07152
51.385 0 -16.2623
1.69779 0 6.08865
-29.3751 0 -1.21699
36.8415 0 -0.58052
2.5297 0 -8.96041
-6.69963 0 25.4148
11.8697 0 7.12546
-23.9833 0 -7.15983
89.2824 0 110.221
49.0585 0 -57.5695
-0.168673 0 11.4992
-3.57684 0 8.96068
12.216 0 -7.10789
-25.5743 0 -44.6679
-20.0956 0 -22.4057
15.345 0 14.1074
28.5773 0 -56.0889
16.8245 0 -10.0964
-2.85547 0 -4.05054
-67.4142 0 43.6379
0 0 0
40.4767 0 -47.8763
11.5305 0 10.7239
4.05621 0 4.01978
-5.32804 0 1.47327
11.6843 0 7.50238
19.3094 0 15.1653
0.244567 0 2.57075
-7.21858 0 14.6665
-4.03437 0 15.626
118.578 0 1.42237
28.7387 0 2.07581
-10.799 0 -20.0186
11.4781 0 26.8748
-12.6854 0 -1.11996
-10.3392 0 -7.99411
4.21577 0 12.7208
14.1716 0 -12.0231
-18.6592 0 13.507
54.1065 0 -3.91076
-14.8742 0 -3.9653
-12.335 0 -2.9721
31.5887 0 -23.7636
6.08677 0 -0.0535441
-4.78889 0 8.80719
1.6771 0 25.8359
22.6504 0 -35.6779
-42.6218 0 32.2681
37.372 0 6.42743
10.211 0 -66.0229
-3.76781 0 -1.18755
-28.3426 0 4.65191
40.0254 0 67.525
-69.0966 0 -2.58749
33.4331 0 36.1356
57.5404 0 29.9625
-53.8776 0 -16.3961
7.00122 0 -24.198
16.8293 0 -33.9475
-49.4498 0 18.5645
2.08458 0 33.545
-11.0574 0 -69.426
-6.53142 0 -39.8293
65.8416 0 -87.4358
55.8339 0 -90.7535
23.3877 0 5.68692
8.65086 0 2.94436
14.5997 0 -14.563
17.1651 0 1.59196
-18.1332 0 7.59611
-6.06429 0 -9.97349
2.89592 0 13.4102
-1.59554 0 -22.4956
24.6304 0 -2.27486
21.4029 0 42.1565
5.11891 0 6.16364
5.38594 0 13.7964
22.076 0 -8.83091
9.79045 0 19.2857
-34.9559 0 -2.58457
-65.5512 0 -42.7204
-82.4381 0 -53.0107
-10.3152 0 8.30417
-13.8828 0 27.7807
-8.75262 0 3.30853
-8.08893 0 -11.4327
6.75586 0 -1.55892
-18.9648 0 -34.5462
-13.6675 0 15.1234
-24.4951 0 64.1722
12.1465 0 22.4273
7.78179 0 7.08743
-6.64665 0 -19.844
-29.8842 0 -10.9665
16.272 0 19.7639
-150.66 0 109.14
23.3418 0 13.4854
-46.5724 0 31.7339
18.9992 0 -8.2747
7.54086 0 -11.3535
29.8494 0 0.769516
-5.89593 0 2.17544
-19.3475 0 32.9119
-3.22106 0 9.65972
30.7239 0 -20.306
-43.674 0 -48.7038
-59.5233 0 19.4733
35.955 0 4.40681
-5.52968 0 -24.7307
-5.88958 0 15.4184
-23.3034 0 -45.7807
-17.0399 0 -10.3168
0.934026 0 1.56432
-38.0543 0 -25.6688
16.0945 0 19.4029
-2.1551 0 6.21632
-5.51055 0 -51.5621
-40.8379 0 74.1962
103.539 0 19.6855
-1.71586 0 -34.5023
41.3402 0 -0.792821
-1.18822 0 86.1821
-59.9298 0 22.4181
87.4643 0 38.1139
-107.887 0 94.5371
26.3798 0 -24.8525
1.304 0 -5.16016
-44.8856 0 -27.7263
-13.1883 0 4.32054
47.7315 0 143.191
2.79386 0 -8.08856
-14.8531 0 -17.3539
7.01602 0 8.29828
3.62455 0 14.333
-50.6591 0 -25.0655
16.5351 0 46.818
-8.01969 0 -41.6537
-13.8355 0 4.94576
19.2431 0 1.54475
83.7059 0 -8.0849
69.9325 0 22.0597
9.44524 0 -0.14115
-19.6257 0 -26.2502
19.1541 0 2.5221
2.49147 0 13.2941
17.0699 0 13.9982
-6.25224 0 -6.28036
-42.5347 0 -20.5715
15.0739 0 9.3994
-0.816634 0 41.5207
28.3182 0 4.92888
-3.87847 0 -2.03209
-5.10529 0 13.5201
-3.64457 0 -35.4217
15.3085 0 -37.6584
5.5465 0 17.587
31.5029 0 -1.55686
-18.7912 0 -28.0819
8.75894 0 -7.51072
-4.11639 0 15.7009
3.81079 0 -9.88278
3.63809 0 11.325
-15.0935 0 -5.75126
-5.05439 0 -17.3365
-28.7966 0 9.94818
9.3866 0 10.5819
17.0373 0 26.4255
32.0302 0 -21.1096
-3.97939 0 -5.13323
3.19421 0 68.9932
4.05251 0 2.12523
28.9764 0 38.1203
27.2194 0 -4.48191
-37.8029 0 -34.9264
73.0437 0 13.0234
-11.079 0 -1.30788
14.8484 0 61.7732
16.5158 0 -74.6032
-14.1359 0 -13.2716
-17.4566 0 37.9468
-3.6629 0 -20.7388
-18.2277 0 -15.7623
-3.66206 0 18.876
-40.1783 0 38.9892
-38.2758 0 7.95549
-19.5919 0 -56.9954
52.8688 0 29.2613
-2.9962 0 11.5228
32.9889 0 27.5454
-65.2659 0 -103.6
-7.7535 0 2.89282
-60.476 0 -90.444
-29.694 0 -31.1771
-3.44434 0 4.30571
3.97752 0 6.14556
21.325 0 15.7967
-15.2702 0 54.3512
1.45283 0 7.99513
21.8921 0 8.42609
-5.94661 0 -30.0671
-10.7342 0 33.1875
2.14091 0 32.4643
6.85522 0 9.15644
-8.58307 0 20.6515
-7.15129 0 -5.11365
15.7748 0 -8.28991
-4.41395 0 -40.6736
-6.92436 0 -16.4119
-2.60599 0 -5.16308
3.54925 0 -5.57284
-3.22059 0 -5.71065
-23.8233 0 8.0737
-10.3986 0 5.24857
-9.48371 0 7.2972
9.69396 0 7.6386
-7.72609 0 -37.1718
-19.7861 0 -44.6421
-4.18077 0 34.1897
2.92187 0 2.51199
-12.6324 0 -0.490954
-29.4518 0 -20.4549
10.6449 0 -0.304148
-1.2356 0 10.7165
11.0765 0 -17.6345
12.1216 0 9.75957
-17.4688 0 -13.9048
-36.971 0 -24.1194
-2.18377 0 59.8809
37.2122 0 -32.0672
0.89697 0 -1.81316
4.25914 0 -11.5007
-2.62448 0 8.38376
7.67659 0 1.85877
-43.3307 0 23.3562
-17.061 0 4.64286
14.8508 0 -25.941
12.1796 0 5.19912
-11.7903 0 -10.7478
-35.1681 0 -5.69061
1.36708 0 -6.08654
-2.31921 0 13.4414
-3.85804 0 -23.8377
-5.19377 0 8.40462
-26.235 0 -2.91676
21.0229 0 9.17825
-30.6704 0 12.0313
-3.78579 0 38.6497
-5.17413 0 -20.1232
2.94018 0 -14.3187
-2.17269 0 19.3974
10.1436 0 -8.55776
45.5455 0 -37.7491
9.62284 0 17.8806
22.0537 0 -45.2486
-31.8109 0 7.62572
31.6653 0 -11.0812
5.01644 0 -7.61598
-7.77898 0 0.92559
26.3709 0 -2.63621
55.1236 0 -9.94435
42.1169 0 -39.7622
-2.45454 0 -10.6883
-19.7328 0 39.2077
-12.6744 0 -6.22203
13.8922 0 13.5128
-10.416 0 -3.48768
-6.34918 0 -5.13802
-17.8789 0 15.991
23.6423 0 0.857363
17.4642 0 -1.49027
-29.5903 0 -3.02696
18.9455 0 7.71458
18.6753 0 -0.9848
21.7673 0 13.5036
-3.83856 0 0.152417
-48.8915 0 -83.3912
54.2286 0 67.8107
5.64236 0 41.7009
-10.8316 0 0.939829
-4.13207 0 12.1215
0.687601 0 -6.93468
11.8332 0 -8.69813
-11.5584 0 0.930956
1.93565 0 -5.02714
0.679672 0 -13.8532
-115.542 0 -16.1656
121.556 0 19.7152
20.1997 0 -47.1337
-35.4458 0 20.4731
26.4474 0 -19.1205
15.1391 0 2.74301
-54.6043 0 -48.3485
-2.54711 0 -43.8673
-54.8893 0 -35.9612
-20.0245 0 21.6172
-0.899284 0 1.98767
17.5123 0 6.03137
10.2633 0 -4.98618
2.51203 0 77.9742
-6.4393 0 20.9026
7.46328 0 -8.02283
52.8776 0 -28.7755
-4.93311 0 12.1728
-68.1834 0 -62.9126
59.5144 0 22.8638
7.97716 0 -4.72918
-47.6403 0 -10.4188
34.8808 0 2.5986
24.9073 0 -10.0421
-6.65327 0 6.14797
-2.50258 0 14.8945
-18.3202 0 -6.27257
14.7772 0 -10.6411
-41.0379 0 7.91122
24.4923 0 20.6718
-5.98258 0 -1.0407
3.5854 0 -42.8991
-13.5373 0 4.3386
-34.5005 0 -31.9347
-25.4276 0 -34.1501
-9.83625 0 7.26308
46.9205 0 48.1122
-94.5979 0 -53.5546
3.68138 0 11.5657
-7.89651 0 -12.6406
2.26784 0 -5.94312
8.31857 0 -14.8843
1.96363 0 -14.0675
-3.07024 0 14.9766
-1.35526 0 0.745089
-5.82184 0 6.88191
34.8555 0 -33.4388
11.1595 0 32.749
-37.0651 0 7.81508
-49.2731 0 -12.794
6.90529 0 10.5031
9.60439 0 -13.9064
15.0711 0 9.78875
-0.627936 0 3.2003
-5.70131 0 -6.41485
57.5495 0 20.7877
-23.2369 0 45.0347
33.7159 0 -61.3944
9.29395 0 0.157774
-47.2754 0 1.15042
19.0198 0 -10.3094
33.3494 0 43.3111
-11.7961 0 -6.41705
-18.7828 0 -24.6985
-38.9589 0 5.67426
-38.2301 0 -35.9405
84.4259 0 46.783
8.0742 0 -19.2525
61.9746 0 55.4538
-2.9441 0 1.97085
-10.6611 0 1.73363
10.0175 0 -11.0742
8.24787 0 3.48364
4.72397 0 -22.8824
-69.5479 0 35.2423
10.426 0 -20.3284
7.72058 0 17.8683
-21.2164 0 8.49026
29.4825 0 -54.5073
1.32777 0 -64.534
-4.70396 0 20.6541
19.1635 0 29.4315
-91.2065 0 4.04536
88.2682 0 -39.7133
-31.619 0 -20.5374
-3.80039 0 10.9797
13.0373 0 6.83878
3.66157 0 -16.6152
-40.3562 0 22.3764
0.39248 0 -2.22377
-105.867 0 -2.88384
-21.1858 0 -0.563314
-6.58887 0 -21.758
-5.96951 0 -5.94518
-1.56767 0 58.3314
-19.9742 0 -17.2921
27.4745 0 14.1657
21.2501 0 -22.3994
14.4439 0 -27.2642
18.8985 0 21.6482
23.4299 0 -2.59602
-0.502827 0 18.9254
2.73847 0 -17.9316
24.4306 0 2.54219
11.0985 0 2.52005
-27.2008 0 -3.26679
4.72919 0 3.1815
-3.39488 0 -23.1175
10.2799 0 3.44918
-19.6319 0 20.1518
1.30846 0 -0.0399456
-14.7981 0 -60.7036
1.86204 0 -25.4797
13.298 0 0.54623
-13.4418 0 -18.4468
11.8187 0 2.53457
-55.8624 0 2.59172
52.4603 0 26.3184
-54.5571 0 5.56697
-118.641 0 15.0851
129.007 0 23.9922
22.4349 0 27.9197
47.0027 0 -34.1144
-39.7848 0 -27.9535
-7.58672 0 9.66619
-78.6362 0 42.8322
57.3419 0 -43.3633
41.8346 0 26.0264
-0.876146 0 -11.1962
-7.11312 0 -5.56593
-17.8 0 -5.78479
14.0171 0 -8.09223
-10.2888 0 -6.88076
-14.8507 0 -28.0735
-1.91404 0 4.08345
23.7499 0 8.05097
-0.686228 0 45.4383
-25.9387 0 35.6098
13.9033 0 -16.0875
17.8687 0 -18.9747
-19.5325 0 52.4378
-14.929 0 43.1515
-3.04959 0 2.08077
-13.397 0 -7.1439
33.393 0 39.0288
-27.4265 0 41.1687
36.672 0 4.21793
-7.13024 0 -32.5487
-8.15627 0 -9.99921
13.5343 0 -11.8147
-21.2996 0 0.847235
63.7414 0 35.1679
3.89066 0 66.116
-5.70792 0 10.706
75.7294 0 -17.8112
8.28731 0 0.140669
1.29513 0 40.4296
-6.42479 0 57.868
33.74 0 -21.9118
7.52715 0 12.7946
30.3014 0 -5.31807
-11.3153 0 13.3588
2.88677 0 -13.4718
-23.936 0 -9.05245
-2.27512 0 -6.34555
-8.18262 0 8.60593
-37.5399 0 -38.1226
46.0871 0 -99.2709
26.4128 0 58.9172
-30.2248 0 8.70616
47.6071 0 17.3599
48.1604 0 -3.3502
6.00281 0 4.4125
4.59555 0 12.4076
14.1919 0 14.541
-17.6985 0 -17.8704
36.6593 0 8.85156
-3.45629 0 -7.96774
23.0975 0 -1.88202
-27.9579 0 43.7205
0.65503 0 -3.66634
-53.5916 0 28.1842
11.5354 0 -31.7666
0.877317 0 -5.19252
0.166086 0 12.6375
27.0792 0 64.5201
-50.401 0 -73.7604
88.7219 0 34.2492
-2.14272 0 -25.975
33.4898 0 18.3258
-18.6158 0 0.744557
12.4458 0 15.4143
15.1461 0 12.3513
6.5915 0 -3.01857
-54.3925 0 -24.185
51.5417 0 31.0553
2.00093 0 -6.85962
7.53052 0 -1.64591
-0.983759 0 -15.6924
67.6289 0 -57.2571
-17.8662 0 -17.6191
3.13118 0 5.0684
27.3069 0 -22.9103
-92.7214 0 -10.0712
25.7048 0 -27.1348
43.0037 0 70.8891
4.11621 0 -99.1001
-5.33034 0 3.67048
6.88134 0 14.1001
-27.3461 0 12.9578
-12.1952 0 -16.9744
7.40088 0 4.25227
7.30912 0 36.4622
-3.46895 0 -6.28672
-14.0104 0 -38.917
-15.0579 0 -6.536
1.17817 0 28.5178
-11.0585 0 -8.49721
-37.2133 0 -7.3998
3.05233 0 40.3892
-9.50423 0 -4.40868
-8.70474 0 11.6349
29.8872 0 0.604248
-8.68089 0 34.5634
-3.50963 0 7.42569
-65.2048 0 -23.9853
-59.6837 0 70.9261
-13.1198 0 4.96068
54.941 0 29.1743
-41.8792 0 3.59239
-15.9696 0 35.9757
33.7771 0 -19.225
-3.91488 0 -5.99883
16.3218 0 12.4409
79.2608 0 25.3947
-15.4975 0 -40.8892
-74.0953 0 -33.0856
67.9589 0 26.4804
-18.3937 0 8.03163
-2.87582 0 -5.53865
-7.14835 0 0.551777
22.5489 0 -10.0486
42.429 0 -47.2305
18.8233 0 30.3285
49.3986 0 1.63128
8.6852 0 -27.7266
2.7927 0 3.23889
-2.1628 0 18.1738
-24.838 0 13.6532
13.7132 0 -12.9532
36.0403 0 -25.1943
11.7022 0 6.42478
14.9076 0 3.51976
-10.3859 0 -3.83456
-49.2641 0 22.3444
52.0232 0 -14.6251
-136.398 0 -45.6775
-42.6262 0 55.1482
-32.9432 0 27.9763
-11.965 0 -12.4641
-7.58547 0 -7.72881
-45.9976 0 9.88971
32.1778 0 28.2581
7.50106 0 2.34166
55.4991 0 12.8792
-0.642077 0 -12.9231
-12.807 0 -2.46678
-6.16321 0 18.1912
20.9548 0 8.81429
20.3978 0 -4.95233
-0.816528 0 -21.5111
28.6454 0 14.1851
-68.0948 0 14.4339
-8.18349 0 -1.94705
-107.69 0 -12.6854
-5.52344 0 15.423
22.4854 0 -10.3689
-63.9591 0 17.0158
-0.868757 0 -32.218
5.38406 0 -6.54316
-23.9409 0 4.47451
8.26828 0 -19.6302
-2.60212 0 -11.7914
6.69945 0 -24.1259
-0.380065 0 16.2223
66.7493 0 32.272
-30.5169 0 48.4614
-50.2951 0 19.6735
58.4355 0 2.66392
39.4042 0 4.92253
-12.7034 0 3.56058
-14.7269 0 -11.0997
-10.2596 0 -3.79962
-62.9896 0 -57.8558
14.8431 0 -3.27068
-10.8393 0 37.7042
27.4738 0 5.41897
-5.70655 0 -15.5152
1.14598 0 -15.0623
56.1326 0 10.2602
-3.42166 0 14.6635
-13.5205 0 4.07301
-117.424 0 -28.9992
-73.5503 0 13.8608
-99.2804 0 18.1182
-0.24732 0 -13.1413
98.0693 0 -26.87
1.33169 0 -13.3471
6.3275 0 -10.8477
-3.33949 0 -7.7976
-12.551 0 0.54232
6.07474 0 8.49478
-14.8112 0 -5.51741
-0.279781 0 -13.6227
-7.56866 0 -7.86231
-14.5422 0 19.6429
140.77 0 6.52343
11.2632 0 16.1768
4.21013 0 -4.37852
35.0462 0 -7.27535
6.33105 0 -1.8716
13.583 0 2.10358
-16.6851 0 7.57809
-18.1691 0 -18.2625
39.6923 0 26.1937
-4.00344 0 0.714171
8.63654 0 0.841041
-4.51351 0 7.96917
-24.0711 0 -11.427
-10.8331 0 -7.69735
-36.1015 0 2.95713
-24.8763 0 -10.9919
8.48311 0 6.6139
-18.068 0 -19.1501
2.92834 0 8.05618
11.9591 0 -2.57146
88.5256 0 -32.9918
41.7464 0 -27.8334
10.3365 0 -24.5966
-32.3572 0 -14.0554
-4.93538 0 4.95728
12.2058 0 -0.637998
7.72371 0 -10.39
0.312272 0 5.06559
22.1917 0 -8.93881
14.3139 0 3.70046
10.1107 0 -17.5115
17.0307 0 -28.3555
-9.01899 0 8.14519
-15.9212 0 -13.7806
3.25825 0 5.723
-21.9501 0 14.2126
0.336079 0 -21.3524
-32.3404 0 -14.3222
-13.148 0 -6.03821
-13.8777 0 -16.9756
5.70874 0 -1.57122
-6.5475 0 -9.68054
-1.72325 0 12.1725
10.9847 0 3.38356
-16.4383 0 15.9928
36.2045 0 -107.426
-8.03311 0 7.92345
24.9539 0 5.91567
-12.6576 0 17.5254
94.9501 0 14.3187
54.9073 0 -18.8738
-23.4131 0 20.9379
-11.732 0 35.6882
-9.10818 0 8.90086
10.5982 0 -23.6115
-4.69929 0 14.2419
15.5121 0 2.35746
3.71681 0 2.02893
0.975821 0 -3.3495
19.2989 0 4.35434
28.9671 0 -63.9596
-25.0042 0 35.0283
-14.8643 0 -67.28
-32.9445 0 21.05
-18.0792 0 15.4521
-8.13332 0 4.44764
-2.30627 0 -11.301
0.898575 0 12.0357
37.5315 0 -12.5728
-0.939678 0 4.82375
-4.86882 0 -16.6211
11.3854 0 -18.0722
15.7138 0 4.21221
4.86585 0 40.4091
10.1064 0 22.4244
2.47091 0 19.8575
17.9538 0 -22.331
15.8063 0 -29.151
-37.8236 0 0.593849
77.444 0 -46.6787
-88.2569 0 95.2692
-7.08688 0 16.861
-27.6645 0 -114.677
-8.24603 0 3.24567
-0.4762 0 8.73893
17.0458 0 -10.8613
0.0843651 0 14.3606
17.9836 0 7.73992
-31.1619 0 -9.88405
-48.5501 0 -5.82281
14.2245 0 7.72966
40.3098 0 -3.60137
7.89966 0 -5.23459
-14.2079 0 18.0788
9.57161 0 -33.52
12.3941 0 19.6255
-80.7419 0 -22.7442
4.86957 0 5.31069
24.3193 0 -16.3136
15.5695 0 30.8699
6.01264 0 -16.5562
-9.86739 0 -18.1766
-1.03498 0 -9.45614
-6.05936 0 -51.8259
-68.6318 0 50.694
-19.07 0 99.3271
-6.04983 0 -8.95844
-2.96036 0 -10.4711
0.338919 0 15.8721
-1.73842 0 -2.05301
9.5693 0 -26.9211
-15.4728 0 28.8539
43.9179 0 -55.2354
-17.1414 0 -5.85186
-18.9866 0 7.05562
21 0 4.84611
35.0684 0 -4.56002
-30.6652 0 -2.85131
-98.036 0 -19.9336
42.5376 0 -61.2302
-85.9721 0 -50.121
-7.61964 0 -22.6431
-68.7368 0 26.4036
-3.28247 0 22.953
36.5471 0 53.6266
-37.5871 0 19.0184
12.5407 0 3.43219
39.6572 0 -15.5528
-9.34163 0 -23.7321
8.48571 0 -34.8639
-19.4751 0 -5.60541
6.35654 0 -13.2378
-17.5454 0 -36.1624
1.73496 0 -2.40235
1.77306 0 6.56835
1.74394 0 -8.43106
14.045 0 53.9508
23.0974 0 25.3583
9.99346 0 16.6455
7.46934 0 13.931
51.5928 0 -24.8486
80.5889 0 -62.6406
-1.73657 0 -4.91527
12.7518 0 -14.9964
-15.9887 0 5.58321
1.80002 0 19.1235
-18.8458 0 -8.26226
-3.91577 0 11.8798
5.165 0 35.8515
-6.14673 0 -21.3829
-3.23282 0 -28.1403
3.59645 0 39.8335
-3.92351 0 8.69737
-12.9281 0 1.39487
25.8214 0 -3.6486
-15.3643 0 55.3273
-13.6053 0 -2.8602
-11.1058 0 -41.1644
-4.38552 0 33.0382
4.09572 0 -6.33895
6.14945 0 7.21897
10.7484 0 10.3918
-11.657 0 5.4466
26.1851 0 41.4034
-2.96186 0 -2.02151
29.1561 0 -18.3625
-41.3763 0 23.0079
-83.1298 0 -21.631