# vtk DataFile Version 3.0
SiWiRVisFile
ASCII
DATASET UNSTRUCTURED_GRID
POINTS 1600 DOUBLE
76.6452 100 72.3688
75.1639 100 72.6008
75.9362 100 73.2748
78.0109 100 73.0272
78.9313 100 73.5543
80.1034 100 74.0996
81.0418 100 73.3552
82.2325 100 73.5936
83.2262 100 74.2566
83.2083 100 72.9971
92.6081 100 66.7114
91.5018 100 66.5855
92.1048 100 67.7452
89.9917 100 66.6292
83.8989 100 66.4512
90.1414 100 58.0128
91.4796 100 57.7281
90.9627 100 55.848
86.9188 100 49.2949
93.5493 100 53.8532
107.17 100 32.0787
107.391 100 30.3227
106.568 100 29.6032
107.459 100 28.9212
105.566 100 30.5433
112.086 100 31.7493
110.961 100 23.0571
112.462 100 22.3826
110.715 100 25.0157
111.705 100 24.617
112.718 100 24.2474
113.612 100 25.0317
111.899 100 23.5435
113.851 100 23.8855
114.475 100 29.4507
118.338 100 30.3756
116.824 100 28.6302
117.244 100 30.2934
116.373 100 30.9691
116.57 100 32.0906
131.899 100 54.7209
137.574 100 49.2949
131.103 100 56.0628
133.123 100 57.451
135.183 100 56.7919
135.41 100 68.6963
134.072 100 65.9995
134.33 100 68.4198
133.014 100 66.0181
133.489 100 67.0236
140.918 100 73.0537
140.753 100 74.2267
141.788 100 73.9263
142.819 100 73.402
144.521 100 73.8684
145.741 100 73.3218
146.8 100 72.9909
148.73 100 73.2691
149.488 100 72.3704
147.916 100 72.6314
74.2574 100 73.199
75.0963 100 73.9483
76.9997 100 73.5728
77.8857 100 74.1616
79.2194 100 74.7407
81.2153 100 74.5393
82.2501 100 74.9599
83.3458 100 75.4404
84.5629 100 74.6823
85.4229 100 75.5316
86.9369 100 75.3815
92.1574 100 65.5849
91.0334 100 67.5807
91.2164 100 63.6004
90.8754 100 59.0373
91.1423 100 65.3613
92.1655 100 56.8371
92.0691 100 55.7502
93.3217 100 55.727
96.4895 100 53.1673
106.525 100 31.1538
96.2344 100 38.4035
106.775 100 42.1989
109.255 100 28.1843
108.488 100 29.2397
111.853 100 30.6246
110.653 100 30.0826
109.792 100 29.3366
106.639 100 19.94
111.49 100 25.9511
112.625 100 25.4529
118.22 100 20.0097
113.358 100 27.2869
115.639 100 28.6942
115.411 100 30.4849
116.269 100 29.6534
114.709 100 26.9592
118.941 100 42.0026
128.258 100 38.4035
117.635 100 31.2825
127.37 100 54.5278
129.285 100 55.0911
132.075 100 53.5931
134.134 100 56.9681
133.268 100 64.8501
133.745 100 58.4277
131.984 100 62.0967
134.584 100 67.3076
132.097 100 65.4702
138.491 100 75.7101
139.537 100 75.2269
140.565 100 75.3745
141.6 100 75.0832
142.636 100 74.6553
143.614 100 74.2615
145.463 100 74.3796
146.525 100 74.0954
147.657 100 73.7679
149.655 100 74.1696
150.38 100 73.309
74.0897 100 74.5302
75.1582 100 75.0529
76.1515 100 74.4124
77.1494 100 74.8847
78.2545 100 75.2374
80.3122 100 75.3715
81.3454 100 75.7479
82.297 100 76.1672
83.267 100 76.5073
84.2332 100 75.874
86.3272 100 76.3011
85.9518 100 77.3929
88.2059 100 77.4856
91.9897 100 64.4062
90.0834 100 62.2133
93.0594 100 61.2965
92.6208 100 57.8335
93.207 100 56.9325
94.1358 100 56.3939
95.6107 100 53.9576
97.5303 100 52.6128
104.299 100 43.0679
105.412 100 42.5995
106.633 100 43.4532
98.1758 100 40.0549
107.902 100 42.6833
107.462 100 41.3119
105.819 100 41.2694
111.044 100 27.0537
112.52 100 28.2687
112.322 100 26.6813
113.453 100 26.2013
122.121 100 41.7181
118.479 100 40.5499
117.556 100 42.1118
120.74 100 42.7567
118.573 100 43.6467
119.7 100 42.9556
120.678 100 43.8261
126.597 100 53.7563
130.869 100 54.907
130.095 100 55.8959
133.121 100 56.2666
132.165 100 56.8534
132.68 100 60.0226
132.052 100 60.9884
132.182 100 64.351
136.854 100 76.159
137.803 100 76.7994
139.015 100 76.7143
140.067 100 76.3753
141.525 100 76.1719
142.534 100 75.8508
143.457 100 75.3706
144.467 100 74.9869
146.239 100 75.2698
147.336 100 74.8403
148.542 100 74.4076
149.214 100 75.2686
150.712 100 74.5206
74.2215 100 75.6471
75.1912 100 76.162
76.1601 100 75.5025
77.2545 100 76.0398
79.2415 100 75.8614
80.1047 100 76.521
81.1972 100 76.8266
82.1836 100 77.2587
84.2165 100 76.9104
85.1837 100 76.5125
85.5508 100 78.8436
87.1334 100 77.4066
87.3975 100 76.3167
92.2744 100 63.1189
91.2383 100 62.4723
90.9261 100 61.333
93.1337 100 58.8266
91.9841 100 58.6027
93.8008 100 57.9117
94.8222 100 57.6037
95.2033 100 55.1676
97.8103 100 54.1845
104.564 100 41.91
105.149 100 47.1463
105.398 100 43.6971
105.82 100 44.8909
108.269 100 45.1442
110.439 100 45.106
108.606 100 41.8604
112 100 29.5044
113.731 100 28.4779
115.013 100 40.1611
115.469 100 43.5156
116.46 100 43.8961
117.416 100 44.3831
119.69 100 44.0908
118.472 100 44.7126
119.608 100 41.0479
126.342 100 54.7573
128.908 100 56.1309
129.598 100 56.9078
131.938 100 57.9641
132.366 100 58.9678
131.456 100 60.1073
130.918 100 61.0295
131.343 100 63.0798
131.096 100 64.167
137.441 100 75.1678
137.788 100 77.9108
138.855 100 77.7592
139.896 100 77.5923
141.172 100 77.2773
142.243 100 77.0019
143.201 100 76.6733
144.242 100 76.2764
145.251 100 75.7525
147.057 100 76.1071
148.134 100 75.5945
149.137 100 76.3575
150.292 100 75.6876
74.3172 100 76.7179
75.2431 100 77.245
76.2894 100 76.5598
78.2437 100 76.6196
79.2226 100 77.1956
80.1989 100 77.541
81.2236 100 77.9528
82.1787 100 78.3998
83.2849 100 77.6791
84.3313 100 78.0557
85.3832 100 79.9162
88.8664 100 78.4949
88.5367 100 76.3253
95.2692 100 61.0265
91.9453 100 61.6097
93.5384 100 59.8619
95.891 100 59.6737
95.5885 100 58.5137
95.2553 100 56.3575
96.3912 100 55.5203
96.7229 100 54.3385
103.001 100 51.5277
104.906 100 46.0086
107.123 100 45.8432
107.086 100 44.7858
108.182 100 46.3243
109.376 100 45.3959
110.43 100 46.3098
107.639 100 43.8036
110.828 100 31.2078
110.384 100 32.1877
116.37 100 42.7829
113.24 100 45.6877
114.618 100 45.4123
116.109 100 45.188
117.506 100 43.2822
117.425 100 45.489
117.9 100 46.7565
122.358 100 51.0316
128.344 100 54.0892
128.227 100 55.217
128.375 100 57.267
130.777 100 57.8528
131.14 100 58.9481
129.919 100 59.0324
130.283 100 63.3663
130.902 100 62.1026
136.878 100 77.3415
136.815 100 78.3816
139.614 100 79.684
139.494 100 78.6222
140.964 100 78.381
141.993 100 77.9994
142.995 100 77.9877
144.049 100 77.5828
144.977 100 77.0924
146.064 100 76.4495
148.037 100 76.7292
148.966 100 77.4129
150.391 100 76.7588
74.0963 100 77.6899
75.1728 100 78.3719
76.2501 100 77.7011
77.2942 100 77.1181
78.225 100 77.7969
79.1931 100 78.4221
80.206 100 78.8291
81.3288 100 79.1099
82.3564 100 79.5454
83.3366 100 78.7221
84.3339 100 79.1316
86.6335 100 78.4739
88.901 100 79.6027
88.1268 100 75.0869
89.6147 100 75.9121
94.1112 100 60.8
96.335 100 60.8453
97.1666 100 60.0746
96.734 100 59.0243
96.3434 100 56.7851
97.456 100 55.2633
99.5448 100 54.2374
104.215 100 50.1819
105.02 100 49.3847
106.08 100 46.3238
107.272 100 46.949
108.281 100 48.8238
109.159 100 46.7515
111.931 100 44.9182
110.907 100 44.1582
114.399 100 43.5899
114.014 100 46.3821
115.527 100 46.1892
115.729 100 47.3731
116.555 100 46.2225
118.596 100 45.7951
118.899 100 47.3207
122.157 100 49.6735
124.526 100 55.1967
127.058 100 55.5733
127.682 100 56.3756
129.602 100 58.0383
128.551 100 59.4695
128.946 100 60.3987
130.235 100 60.1254
135.669 100 76.0164
137.978 100 72.3933
136.154 100 79.1787
138.454 100 79.0089
140.689 100 79.5522
141.84 100 79.0927
142.75 100 80.3214
142.993 100 79.1304
143.972 100 78.678
145.062 100 78.2089
146.043 100 77.6025
147.048 100 77.2551
147.901 100 77.8151
148.906 100 78.4605
149.871 100 78.0164
72.9198 100 78.4093
74.0474 100 78.7527
76.2765 100 78.7784
77.2102 100 78.2637
78.1218 100 78.878
78.5164 100 81.4044
80.4903 100 79.8186
81.5084 100 80.2609
82.5656 100 80.6888
83.4598 100 80.0003
85.6891 100 81.1143
87.759 100 78.4581
89.4715 100 80.4833
89.3247 100 74.8328
94.9779 100 62.0701
94.9207 100 59.9771
96.0441 100 61.9221
98.3278 100 60.4761
97.0086 100 57.8403
97.4897 100 56.3547
98.5882 100 54.9962
100.915 100 54.5647
104.165 100 51.2552
106.404 100 47.4141
109.127 100 49.8049
109.178 100 48.0342
106.651 100 51.4807
110.117 100 47.3419
105.789 100 52.1265
107.623 100 51.1575
118.348 100 52.4351
117.094 100 51.4975
115.142 100 48.3605
116.259 100 52.6036
115.994 100 49.4293
116.271 100 48.3522
116.899 100 47.2525
121.184 100 50.9404
122.192 100 53.1164
125.578 100 55.5814
126.542 100 56.4561
128.272 100 58.3604
127.508 100 59.0862
127.848 100 61.0503
129.853 100 61.4511
129.565 100 62.536
136.292 100 75.0883
130.546 100 79.6221
137.303 100 79.4529
140.579 100 80.5899
141.696 100 80.1209
142.456 100 81.3399
143.901 100 79.9636
145.078 100 79.3041
145.893 100 80.1718
146.028 100 78.8908
146.924 100 78.3646
147.912 100 78.9906
149.884 100 79.0438
150.971 100 78.5061
72.9886 100 79.536
74.0261 100 80.001
75.0103 100 79.4223
76.241 100 80.0817
77.194 100 79.3461
77.2937 100 80.443
78.611 100 80.163
80.4682 100 80.9848
81.5821 100 81.4103
82.854 100 81.7228
84.1671 100 81.7265
85.28 100 82.3546
86.4576 100 79.5419
86.3403 100 82.1869
85.8531 100 83.2099
90.443 100 79.7563
95.908 100 63.7631
97.563 100 61.281
99.0976 100 58.4595
98.067 100 58.8731
98.6343 100 57.4575
98.5614 100 56.3378
104.668 100 52.2328
105.473 100 48.3492
107.557 100 48.0216
108.187 100 50.2479
107.235 100 49.5108
105.266 100 53.2199
106.378 100 53.1485
108.284 100 54.3061
117.329 100 52.6399
119.92 100 53.0525
120.533 100 54.0139
117.242 100 49.8802
116.432 100 50.506
117.317 100 48.8522
118.013 100 47.9314
121.546 100 51.9462
124.896 100 56.4065
127.226 100 57.3416
126.009 100 58.561
126.15 100 59.6444
127.095 100 60.322
128.793 100 61.4922
131.331 100 78.9223
139.239 100 82.2959
139.441 100 80.7334
138.516 100 80.0425
140.135 100 81.6552
140.921 100 82.85
141.217 100 81.556
143.526 100 81.2652
144.947 100 81.9027
144.855 100 80.6149
146.865 100 80.654
146.984 100 79.5514
148.005 100 80.1542
148.962 100 79.527
149.988 100 80.1846
150.942 100 79.7784
73.1888 100 80.6592
74.2284 100 81.1327
75.2778 100 80.6944
76.3683 100 81.2015
77.1758 100 82.7046
75.0462 100 84.2504
77.3823 100 81.6491
79.5665 100 81.4688
80.637 100 82.1737
79.5617 100 82.6069
82.0458 100 82.716
82.6011 100 83.6253
83.6292 100 82.88
84.7615 100 83.3653
86.905 100 83.1364
90.0407 100 78.5752
97.0902 100 63.6259
97.1821 100 62.4708
99.0139 100 59.6139
101.462 100 59.0637
99.6896 100 55.6885
[...]
POINT_DATA 1600
SCALARS mass double
LOOKUP_TABLE default
1
1
1
1
1
1
1
1
1
1
1
1
1
1
1
1
1
1
1
1
1
1
1
1
1
1
1
1
1
1
1
1
1
1
1
1
1
1
1
1
1
1
1
1
1
1
1
1
1
1
1
1
1
1
1
1
1
1
1
1
1
1
1
1
1
1
1
1
1
1
1
1
1
1
1
1
1
1
1
1
1
1
1
1
1
1
1
1
1
1
1
1
1
1
1
1
1
1
1
1
1
1
1
1
1
1
1
1
1
1
1
1
1
1
1
1
1
1
1
1
1
1
1
1
1
1
1
1
1
1
1
1
1
1
1
1
1
1
1
1
1
1
1
1
1
1
1
1
1
1
1
1
1
1
1
1
1
1
1
1
1
1
1
1
1
1
1
1
1
1
1
1
1
1
1
1
1
1
1
1
1
1
1
1
1
1
1
1
1
1
1
1
1
1
1
1
1
1
1
1
1
1
1
1
1
1
1
1
1
1
1
1
1
1
1
1
1
1
1
1
1
1
1
1
1
1
1
1
1
1
1
1
1
1
1
1
1
1
1
1
1
1
1
1
1
1
1
1
1
1
1
1
1
1
1
1
1
1
1
1
1
1
1
1
1
1
1
1
1
1
1
1
1
1
1
1
1
1
1
1
1
1
1
1
1
1
1
1
1
1
1
1
1
1
1
1
1
1
1
1
1
1
1
1
1
1
1
1
1
1
1
1
1
1
1
1
1
1
1
1
1
1
1
1
1
1
1
1
1
1
1
1
1
1
1
1
1
1
1
1
1
1
1
1
1
1
1
1
1
1
1
1
1
1
1
1
1
1
1
1
1
1
1
1
1
1
1
1
1
1
1
1
1
1
1
1
1
1
1
1
1
1
1
1
1
1
1
1
1
1
1
1
1
1
1
1
1
1
1
1
1
1
1
1
1
1
1
1
1
1
1
1
1
1
1
1
1
1
1
1
1
1
1
1
1
1
1
1
1
1
1
1
1
1
1
1
1
1
1
1
1
1
1
1
1
1
1
1
1
1
1
1
1
1
1
1
1
1
1
1
1
1
1
1
1
1
1
1
1
1
1
1
1
1
1
1
1
1
1
1
1
1
1
1
1
1
1
1
1
1
1
1
1
1
1
1
1
1
1
1
1
1
1
1
1
1
1
1
1
1
1
1
1
1
1
1
1
1
1
1
1
1
1
1
1
1
1
1
1
1
1
1
1
1
1
1
1
1
1
1
1
1
1
1
1
1
1
1
1
1
1
1
1
1
1
1
1
1
1
1
1
1
1
1
1
1
1
1
1
1
1
1
1
1
1
1
1
1
1
1
1
1
1
1
1
1
1
1
1
1
1
1
1
1
1
1
1
1
1
1
1
1
1
1
1
1
1
1
1
1
1
1
1
1
1
1
1
1
1
1
1
1
1
1
1
1
1
1
1
1
1
1
1
1
1
1
1
1
1
1
1
1
1
1
1
1
1
1
1
1
1
1
1
1
1
1
1
1
1
1
1
1
1
1
1
1
1
1
1
1
1
1
1
1
1
1
1
1
1
1
1
1
1
1
1
1
1
1
1
1
1
1
1
1
1
1
1
1
1
1
1
1
1
1
1
1
1
1
1
1
1
1
1
1
1
1
1
1
1
1
1
1
1
1
1
1
1
1
1
1
1
1
1
1
1
1
1
1
1
1
1
1
1
1
1
1
1
1
1
1
1
1
1
1
1
1
1
1
1
1
1
1
1
1
1
1
1
1
1
1
1
1
1
1
1
1
1
1
1
1
1
1
1
1
1
1
1
1
1
1
1
1
1
1
1
1
1
1
1
1
1
1
1
1
1
1
1
1
1
1
1
1
1
1
1
1
1
1
1
1
1
1
1
1
1
1
1
1
1
1
1
1
1
1
1
1
1
1
1
1
1
1
1
1
1
1
1
1
1
1
1
1
1
1
1
1
1
1
1
1
1
1
1
1
1
1
1
1
1
1
1
1
1
1
1
1
1
1
1
1
1
1
1
1
1
1
1
1
1
1
1
1
1
1
1
1
1
1
1
1
1
1
1
1
1
1
1
1
1
1
1
1
1
1
1
1
1
1
1
1
1
1
1
1
1
1
1
1
1
1
1
1
1
1
1
1
1
1
1
1
1
1
1
1
1
1
1
1
1
1
1
1
1
1
1
1
1
1
1
1
1
1
1
1
1
1
1
1
1
1
1
1
1
1
1
1
1
1
1
1
1
1
1
1
1
1
1
1
1
1
1
1
1
1
1
1
1
1
1
1
1
1
1
1
1
1
1
1
1
1
1
1
1
1
1
1
1
1
1
1
1
1
1
1
1
1
1
1
1
1
1
1
1
1
1
1
1
1
1
1
1
1
1
1
1
1
1
1
1
1
1
1
1
1
1
1
1
1
1
1
1
1
1
1
1
1
1
1
1
1
1
1
1
1
1
1
1
1
1
1
1
1
1
1
1
1
1
1
1
1
1
1
1
1
1
1
1
1
1
1
1
1
1
1
1
1
1
1
1
1
1
1
1
1
1
1
1
1
1
1
1
1
1
1
1
1
1
1
1
1
1
1
1
1
1
1
1
1
1
1
1
1
1
1
1
1
1
1
1
1
1
1
1
1
1
1
1
1
1
1
1
1
1
1
1
1
1
1
1
1
1
1
1
1
1
1
1
1
1
1
1
1
1
1
1
1
1
1
1
1
1
1
1
1
1
1
1
1
1
1
1
1
1
1
1
1
1
1
1
1
1
1
1
1
1
1
1
1
1
1
1
1
1
1
1
1
1
1
1
1
1
1
1
1
1
1
1
1
1
1
1
1
1
1
1
1
1
1
1
1
1
1
1
1
1
1
1
1
1
1
1
1
1
1
1
1
1
1
1
1
1
1
1
1
1
1
1
1
1
1
1
1
1
1
1
1
1
1
1
1
1
1
1
1
1
1
1
1
1
1
1
1
1
1
1
1
1
1
1
1
1
1
1
1
1
1
1
1
1
1
1
1
1
1
1
1
1
1
1
1
1
1
1
1
1
1
1
1
1
1
1
1
1
1
1
1
1
1
1
1
1
1
1
1
1
1
1
1
1
1
1
1
1
1
1
1
1
1
1
1
1
1
1
1
1
1
1
1
1
1
1
1
1
1
1
1
1
1
1
1
1
1
1
1
1
1
1
1
1
1
1
1
1
1
1
1
1
1
1
1
1
1
1
1
1
1
1
1
1
1
1
1
1
1
1
1
1
1
1
1
1
1
1
1
1
1
1
1
1
1
1
1
1
1
1
1
1
1
1
1
1
1
1
1
1
1
1
1
1
1
1
1
1
1
1
1
1
1
1
1
1
1
1
1
1
1
1
1
1
1
1
1
1
1
1
1
1
1
1
1
1
1
1
1
1
1
1
1
1
1
1
1
1
1
1
1
1
1
1
1
1
1
1
1
1
1
1
1
1
1
1
1
1
1
1
1
1
1
1
1
1
1
1
1
1
1
1
1
1
1
1
1
1
1
1
1
1
1
1
1
1
1
1
1
1
1
1
1
1
1
1
1
1
1
1
1
1
1
1
1
1
1
1
1
1
1
1
1
1
1
1
1
1
1
1
1
1
1
1
1
1
1
1
1
1
1
1
1
1
1
VECTORS force double
-1.45143 0 20.9542
-36.8957 0 -45.6886
68.4216 0 38.4649
-39.1117 0 -8.95448
30.0194 0 40.4839
19.2493 0 -1.22938
4.58457 0 21.6558
-4.71564 0 17.2402
-10.1479 0 3.78894
-4.41718 0 15.6661
-6.54707 0 -4.96757
2.90904 0 -18.3306
13.0505 0 -13.4828
13.6877 0 3.38571
0 0 0
17.6936 0 7.6074
-53.928 0 -79.4558
0.47621 0 4.7042
0 0 0
0.901735 0 1.9601
-0.842719 0 -3.47179
2.65141 0 5.66246
-14.3753 0 3.36479
-18.573 0 2.19868
11.7768 0 -4.30281
-12.0999 0 -9.63126
-26.9758 0 -14.1306
-7.37348 0 13.8327
-14.6174 0 17.9163
12.2492 0 24.893
48.3318 0 20.3501
11.6051 0 -13.8677
25.0841 0 -15.7459
-14.2802 0 12.3137
7.35955 0 -7.93758
4.02012 0 5.15529
-13.7823 0 11.0074
-24.2185 0 -38.8207
23.1632 0 8.34919
7.44011 0 -12.3817
43.3146 0 -6.98259
0 0 0
83.6231 0 9.19101
-9.93568 0 2.17983
28.4257 0 -4.62002
0.30436 0 -2.62285
27.7139 0 8.62365
-3.04205 0 -8.13787
-11.975 0 -0.559669
9.77194 0 -2.73198
8.49421 0 19.7086
-12.5919 0 15.4702
15.8597 0 -6.54279
-1.55007 0 23.7306
124.752 0 -73.6066
-14.6666 0 -7.93829
17.6254 0 7.24087
53.213 0 50.4221
-2.40744 0 18.5787
-54.1774 0 -24.2919
-9.47823 0 19.7834
-15.0842 0 5.99033
-23.9539 0 -9.46679
84.6636 0 -30.3856
5.52327 0 -7.69111
-14.1039 0 0.0629162
12.3269 0 8.96114
-147.523 0 -100.645
-9.43585 0 22.6376
15.9681 0 -92.6493
-11.6215 0 -50.3635
48.6232 0 21.246
-23.2356 0 -2.25867
5.12456 0 -5.97507
6.79752 0 -20.0936
-42.3052 0 -8.20004
-48.8508 0 -3.57536
17.5645 0 -8.90842
-44.795 0 -11.1053
5.68404 0 15.3094
5.91428 0 -13.4641
0 0 0
-4.10611 0 13.3778
-1.88122 0 19.962
32.5563 0 1.60481
-17.3591 0 4.27469
13.159 0 3.69692
-12.1994 0 -8.18231
0 0 0
-0.582368 0 -17.5916
-44.8485 0 3.88321
0 0 0
-6.89543 0 23.9175
4.61385 0 10.2637
-12.7365 0 -24.006
-0.104654 0 11.4555
-14.9972 0 0.63755
1.37603 0 2.47347
0 0 0
-5.234 0 26.1021
20.4838 0 -3.03555
30.3511 0 -9.82448
-2.02656 0 5.9381
-41.8001 0 3.40367
-16.9948 0 18.1601
-10.4416 0 -9.72407
6.99201 0 7.30061
-5.01627 0 -1.24279
-13.6318 0 -20.0818
-7.82562 0 7.72039
-53.3813 0 7.53467
46.4856 0 12.9676
24.5228 0 -26.2202
-42.0823 0 7.13603
-110.494 0 40.2866
8.5817 0 44.5291
15.3843 0 3.94381
-12.6963 0 -19.8851
-18.2524 0 2.547
-9.12793 0 4.78875
19.8643 0 -7.98921
-3.52496 0 -13.7716
-12.4523 0 -26.6576
-40.304 0 51.4196
-23.4074 0 20.342
-19.715 0 -13.0684
-36.4428 0 -45.1736
-15.1195 0 -21.4647
1.47933 0 33.7938
148.149 0 1.55419
-40.4801 0 14.0713
9.2862 0 1.04373
46.3301 0 -27.7014
-3.03963 0 9.94341
20.3663 0 -4.99736
2.02667 0 -5.72749
75.3344 0 -69.6418
40.7733 0 -8.93057
53.7309 0 23.8305
13.7682 0 9.78543
-8.64788 0 9.81034
23.7222 0 -8.59924
13.5038 0 -4.44312
-36.082 0 -15.2848
0 0 0
-30.8231 0 10.7703
9.30005 0 12.4563
0.867354 0 19.9356
14.7989 0 -12.4582
14.1625 0 -1.99579
18.141 0 -1.62381
-2.83071 0 -13.5826
-1.92786 0 1.44976
11.6315 0 11.3552
2.06205 0 13.645
33.0764 0 -30.5603
12.269 0 -24.3929
-42.4727 0 12.4541
63.2944 0 -3.03764
9.26354 0 -65.4515
-53.0815 0 26.6816
-85.4979 0 -21.06
8.90909 0 17.0092
-9.20847 0 -0.574599
-14.8925 0 12.1855
12.901 0 17.0195
14.1833 0 1.97603
-13.3962 0 3.83073
37.5311 0 -25.2375
-4.907 0 -27.8067
8.14433 0 4.49679
-53.326 0 16.1442
-44.9488 0 -20.2268
45.2174 0 9.03588
15.9176 0 -4.7262
16.5229 0 -9.21832
-2.0369 0 9.92993
-7.97188 0 4.85421
17.5618 0 -9.22459
-8.54907 0 2.07121
-10.405 0 -23.3478
72.9526 0 -40.1843
13.8108 0 -6.40015
10.1168 0 -40.3101
-19.531 0 0.529371
17.3109 0 -77.4273
-23.6788 0 5.14761
26.7852 0 24.0983
7.36625 0 111.112
26.5769 0 82.2605
-4.83613 0 -20.3054
-33.0554 0 8.91327
57.4612 0 46.709
-20.6891 0 1.65504
-3.15325 0 -1.81832
-39.4788 0 8.83915
-7.73372 0 -7.42439
-28.5927 0 184.007
-39.8581 0 0.834505
31.8591 0 -18.6436
15.02 0 5.14082
6.14027 0 -1.75185
-2.75333 0 0.46177
23.1761 0 -1.35621
6.50853 0 11.0102
9.52575 0 -1.03352
-19.7224 0 8.67907
-4.10208 0 41.3548
-1.60529 0 -16.9007
-2.28447 0 -4.26543
-6.95318 0 -5.63718
0 0 0
2.1075 0 -15.2441
17.5949 0 7.91406
17.9953 0 7.48363
-91.9588 0 14.6893
-1.13431 0 13.5346
-15.4421 0 3.94671
-62.9348 0 61.0105
-46.8563 0 -27.1081
29.1472 0 45.4221
-8.34608 0 -10.0069
-8.03596 0 3.87567
-3.38511 0 -63.8251
-13.5373 0 3.9231
24.6332 0 11.7407
-8.70748 0 -0.753745
-0.585758 0 13.9637
21.744 0 22.1781
-44.992 0 24.635
51.2085 0 -26.9985
-26.6803 0 -15.3259
-50.0713 0 -30.6344
113.973 0 5.88631
-7.80168 0 -17.7989
-22.3767 0 -3.38507
49.9012 0 -23.8423
10.1824 0 9.91875
4.26347 0 -18.3393
-16.2135 0 -32.4917
-40.7612 0 -85.3467
20.1817 0 27.105
-17.9308 0 43.2636
28.2341 0 -17.743
-68.3012 0 -12.4166
58.4344 0 101.571
-27.59 0 -6.7382
57.5904 0 12.8962
-15.4569 0 -63.1928
0.781324 0 -19.2852
-5.62691 0 17.9013
0.499648 0 -0.134047
-3.179 0 1.3721
-11.49 0 -7.59864
43.5491 0 11.1499
3.98574 0 0.561768
68.0253 0 1.25156
8.50571 0 7.58941
10.6417 0 -1.48629
-17.4586 0 6.8518
-17.273 0 7.91161
13.5579 0 -3.15304
18.7251 0 5.70441
7.82796 0 32.6911
-4.05325 0 -36.4722
-23.9623 0 -29.5233
-9.38242 0 18.9899
-10.4472 0 -32.5015
29.0435 0 9.09005
25.0857 0 -25.2227
-6.0678 0 17.4782
13.3479 0 5.02566
-35.5837 0 -39.8569
4.35757 0 10.0492
7.39438 0 -3.41839
-16.7824 0 -11.4325
9.41695 0 11.0862
2.8969 0 -7.90004
-19.506 0 0.185284
26.6778 0 0.221117
-36.605 0 24.2278
14.9587 0 -20.6695
-5.00903 0 8.09046
4.46302 0 1.47114
22.5142 0 48.3007
5.1106 0 3.41496
-46.5556 0 1.40976
-31.3711 0 -55.06
13.4564 0 15.8438
-13.8865 0 1.2279
20.1274 0 -0.836347
-23.0039 0 10.3291
-108.52 0 67.8253
116.229 0 -8.52479
-36.7252 0 -1.38378
62.7523 0 -23.9283
-20.5385 0 38.7936
8.00032 0 -17.2089
-19.6198 0 -28.2222
-16.9041 0 28.955
-11.5982 0 101.54
4.21893 0 -37.9454
2.25511 0 -23.3099
-29.769 0 42.2153
9.2439 0 -29.3055
-16.2751 0 -22.2308
7.11443 0 -75.9914
-4.48759 0 -5.3349
22.5702 0 -5.65374
-26.4823 0 48.9804
28.542 0 38.7248
-3.05425 0 -34.4318
-17.396 0 -37.8233
1.62832 0 19.2356
-9.04297 0 6.88023
15.0866 0 11.2478
24.0418 0 -15.1898
5.28359 0 6.61387
26.0366 0 -30.2007
7.69895 0 -8.45861
14.5744 0 -22.4954
-3.41821 0 16.3015
13.5934 0 -16.9934
3.60213 0 7.67748
-4.44864 0 3.76726
126.342 0 -76.2399
13.5417 0 27.5947
34.7081 0 9.88599
-10.9507 0 -2.98444
24.2029 0 -23.752
-22.0876 0 3.56527
48.3469 0 31.3383
-73.331 0 -2.2702
8.88832 0 -14.3062
68.6459 0 -7.08144
-16.4285 0 21.1427
7.52426 0 -28.0051
-1.15807 0 12.5007
4.5141 0 11.1205
-0.913672 0 -114.175
77.6637 0 31.7092
-19.1819 0 -49.9774
-30.3253 0 -94.0559
45.5311 0 92.7471
2.10295 0 4.47926
-16.0498 0 -154.626
0 0 0
-39.2144 0 37.5485
-13.8707 0 -69.0694
35.1911 0 -64.248
6.32051 0 -43.8849
48.3256 0 -36.2745
-23.3753 0 19.5951
27.573 0 6.56482
-3.94607 0 -8.63449
-35.3667 0 17.9966
-47.5826 0 -67.6619
78.4461 0 67.5737
-39.3637 0 26.3557
49.2956 0 -77.8178
18.6872 0 0.905392
-0.755469 0 46.2074
-54.6107 0 33.208
19.0513 0 -39.5754
61.9053 0 -0.174443
-48.3561 0 -4.90473
8.08411 0 76.6078
-5.26267 0 9.99771
-19.9763 0 -25.2698
-4.10089 0 -21.4119
-2.60744 0 8.82088
-20.8261 0 14.7231
33.2165 0 28.2854
-13.6598 0 3.73452
-25.9799 0 13.275
-93.3371 0 22.8732
27.5201 0 -3.40827
-12.3722 0 0.0250636
-4.35855 0 2.56043
-38.0855 0 15.3007
8.20477 0 12.494
-10.018 0 0.376509
-2.49992 0 12.7
-148.05 0 87.5992
39.1862 0 -33.2861
-6.05014 0 -8.60442
-111.221 0 -44.4852
-14.0369 0 21.7733
-15.424 0 24.4193
57.8787 0 -14.2896
23.1425 0 9.09385
-5.26528 0 5.04904
11.6258 0 1.14421
-17.5878 0 -8.31669
13.3747 0 3.17444
15.4218 0 -8.72223
-2.95435 0 31.9839
-3.89427 0 -17.3664
-18.0597 0 -10.9603
32.8014 0 -9.10859
-50.0504 0 59.9485
34.1829 0 -19.7999
-43.2534 0 35.7391
33.9329 0 -11.5514
44.6029 0 -11.5315
-5.06834 0 -19.1363
13.0618 0 11.1317
-24.9593 0 4.48295
8.0882 0 -15.5281
-5.27712 0 49.4445
-42.5474 0 59.558
-46.9485 0 47.0714
-7.20666 0 -7.831
-65.0311 0 48.4259
-10.9751 0 -21.122
5.23806 0 2.56424
47.0738 0 -15.7848
16.1461 0 -10.1331
60.6214 0 50.5972
-23.3187 0 11.9711
14.4545 0 -2.19468
31.4028 0 -24.8741
-0.605227 0 38.2501
-4.53042 0 -19.3501
-39.5015 0 50.5753
8.83606 0 25.3869
-13.1007 0 5.63197
87.1594 0 -36.1574
2.48307 0 -0.48775
2.66794 0 33.8066
-2.77676 0 15.449
-68.0585 0 -62.4867
-9.53027 0 14.0327
14.3568 0 -14.3633
4.47441 0 67.477
-18.3989 0 -5.44256
19.5376 0 4.33235
-22.2197 0 -0.447789
5.7603 0 8.97624
-10.5277 0 8.64659
-13.7929 0 -1.16043
25.202 0 -21.2842
9.04712 0 10.3899
19.7129 0 -6.82984
9.95441 0 -27.4764
-45.5483 0 -12.5301
29.1377 0 -4.18472
-6.23237 0 3.49591
-14.4426 0 -31.3057
-5.64378 0 18.086
-26.1016 0 8.48183
-14.8247 0 10.1391
-4.45781 0 -3.70256
32.1698 0 21.8653
-55.1304 0 46.1784
-14.4632 0 -80.036
-22.7348 0 11.3092
13.8709 0 30.4894
-9.21286 0 14.3609
-5.35539 0 29.3781
-7.83167 0 -19.9732
10.5054 0 24.0403
-39.4841 0 -30.6061
10.8844 0 42.3522
26.5577 0 -38.4829
0.469373 0 -5.91579
1.24271 0 31.3935
8.99691 0 53.6497
-5.45967 0 -7.60053
-3.17079 0 -3.62806
26.6688 0 0.888956
27.002 0 -8.44413
-8.29796 0 -2.26784
3.06257 0 5.74851
-3.28991 0 12.3371
-20.7454 0 0.296993
-35.5352 0 -39.9483
-47.1982 0 45.5209
-56.2251 0 22.5055
42.5578 0 -31.6273
-15.5029 0 18.979
11.435 0 -24.0622
0.657664 0 -1.83031
-5.63818 0 -18.5688
2.61611 0 17.8356
9.51872 0 13.8714
14.5308 0 -23.3294
-21.3261 0 48.1323
-5.56898 0 -11.1452
14.0367 0 -33.6398
-18.541 0 -32.5571
14.3339 0 34.6441
0.958336 0 -0.832805
-16.4437 0 8.03155
33.7149 0 16.5579
-9.96558 0 -3.1022
-58.4292 0 -16.2999
-9.76745 0 -20.4713
-3.21419 0 -12.9304
-68.7192 0 -9.50479
-19.6119 0 -1.96752
13.6999 0 7.34547
-13.7604 0 -1.92187
-27.5992 0 13.8108
5.51095 0 0.0852705
-27.0225 0 -9.24385
-41.4249 0 -98.3177
2.01559 0 46.8683
15.363 0 -9.33689
44.5454 0 83.5802
14.4749 0 -9.85506
10.991 0 -4.13412
-8.3628 0 3.08845
-16.2257 0 10.5336
25.0635 0 -11.4032
-5.63389 0 -4.98992
-16.4549 0 12.0093
23.6111 0 10.9983
20.9932 0 -11.716
1.68868 0 8.84698
-9.81978 0 -13.7719
-20.7218 0 44.9866
-13.0514 0 -14.935
-11.9481 0 -11.6447
16.3771 0 10.1388
13.4814 0 -17.5013
-11.8162 0 -37.3444
-11.131 0 4.71003
12.4941 0 -2.40182
-118.571 0 -26.3848
3.27215 0 -6.60168
105.02 0 44.0245
22.0017 0 -15.1422
-24.915 0 14.8888
30.3474 0 66.7498
85.678 0 -62.3116
42.3156 0 -2.2545
20.494 0 27.4489
1.29986 0 -8.502
-16.7322 0 -22.478
1.07177 0 11.2386
-9.28437 0 1.47409
8.50737 0 -1.3739
-13.3328 0 -5.67492
-0.901796 0 -4.46029
-10.6388 0 5.53244
14.4557 0 -53.9862
5.76693 0 11.0246
10.1416 0 -5.64463
-26.8752 0 24.8291
-4.16419 0 -8.63808
5.69497 0 -8.12504
5.37992 0 11.4705
2.40744 0 -7.58626
3.26519 0 -10.5537
1.96323 0 2.22167
6.17561 0 18.9392
4.46442 0 -10.8173
2.28776 0 11.3917
24.6547 0 37.8306
14.5227 0 -27.2587
-0.177038 0 -0.650172
6.35499 0 -5.115
80.3189 0 5.31849
-4.99039 0 -13.1328
9.03101 0 16.7755
-33.6994 0 30.583
3.64872 0 -5.86791
-8.82517 0 -4.6587
-7.68529 0 1.91859
9.58576 0 -2.03844
1.69224 0 8.80674
59.2912 0 -42.8839
1.94841 0 -21.3809
-9.5012 0 5.37562
28.1191 0 43.2364
-1.30669 0 10.9492
5.3825 0 -2.28823
1.4363 0 -3.01609
3.23165 0 -4.19414
0.798891 0 -4.49302
8.61144 0 2.99191
29.5614 0 155.9
-25.3985 0 -3.3791
42.4965 0 2.63392
37.1742 0 54.9452
-60.4742 0 -32.9413
1.38059 0 -16.339
86.5592 0 27.05
-7.34901 0 -29.4281
-101.002 0 56.8056
29.5199 0 -10.1987
-53.8367 0 4.09792
0.0601055 0 -7.88697
-26.2481 0 13.9358
28.6995 0 -58.5271
-17.1098 0 -5.77266
-4.96518 0 10.6935
7.74244 0 2.45475
-14.5221 0 11.1165
11.435 0 49.0015
12.1977 0 9.12317
13.132 0 -1.28532
4.00571 0 7.96183
-7.63594 0 -38.8466
-2.32669 0 36.7364
-2.51863 0 7.87879
-85.8218 0 -67.4906
45.2458 0 -6.76943
39.5927 0 -50.3485
66.763 0 -48.5131
75.7588 0 -103.25
-52.0712 0 -42.9659
-4.7577 0 13.2567
-48.5225 0 -39.6329
35.7858 0 -33.2725
8.23388 0 -9.88031
-1.03056 0 -11.506
-5.4588 0 5.0035
-10.6844 0 -28.3663
24.9097 0 30.9331
-3.51219 0 -45.9073
-8.81804 0 -6.09109
9.96659 0 -0.675141
-15.4101 0 -5.44766
-31.1108 0 -5.04678
-15.5764 0 20.9197
11.8225 0 -27.4886
49.4215 0 -2.58622
15.0908 0 -31.8404
-42.5361 0 -6.25273
-18.5373 0 30.2581
28.0376 0 -51.3402
5.75908 0 6.53971
9.89405 0 1.96722
-8.26889 0 -21.6392
-11.4978 0 6.70589
-12.5643 0 -16.9958
-17.1858 0 19.9377
32.3945 0 -17.6427
4.4876 0 3.98048
3.79945 0 -6.57032
18.5041 0 7.82208
11.0206 0 -2.02555
41.1279 0 45.4416
-13.8418 0 0.254173
3.29485 0 21.0338
-41.8061 0 128.98
-80.5729 0 -38.0666
5.11835 0 -5.51412
70.0903 0 -20.6558
57.2908 0 52.9955
-12.9581 0 2.91322
-62.9561 0 -78.2167
-26.3077 0 -17.1038
-0.0935502 0 -14.6452
-13.5434 0 2.44911
-4.06472 0 -1.26098
5.67289 0 6.19369
20.922 0 3.38114
-27.3363 0 -4.1915
4.24114 0 -30.361
39.1356 0 -4.57843
9.13788 0 -4.19105
12.5954 0 55.481
-57.1103 0 -34.3221
-2.7734 0 -1.22461
-8.84574 0 8.57515
18.4787 0 -15.2359
-42.5904 0 -8.29825
-18.0736 0 103.698
-91.9225 0 78.3842
3.59479 0 -43.9514
50.9711 0 4.35925
-39.3399 0 40.5511
2.30328 0 -3.27838
8.95097 0 3.61255
-9.69956 0 -144.641
-34.2224 0 12.6234
-20.4731 0 -25.6989
72.2697 0 -0.54037
-23.8818 0 -11.1717
-8.97406 0 28.5253
15.184 0 30.89
-16.006 0 29.8867
-8.07527 0 -8.76048
-7.6004 0 -44.6579
6.07023 0 0.407804
-55.9699 0 1.88919
-15.1888 0 -12.5719
42.6819 0 13.8515
-37.9205 0 60.8941
14.8656 0 -6.00084
-5.68998 0 9.87813
-24.8701 0 -35.7737
18.359 0 -6.56345
22.8752 0 -38.981
24.1318 0 -33.4599
-20.638 0 -13.2917
-15.2183 0 3.34511
45.8835 0 -43.1384
-5.99326 0 -1.9697
-24.2231 0 19.196
-18.948 0 -22.1619
-44.3051 0 11.452
35.2609 0 -23.9467
10.4251 0 -2.32962
101.988 0 -116.231
3.23823 0 -2.34037
-66.3251 0 -15.4422
-17.25 0 -3.92856
8.62653 0 1.46788
-23.6938 0 -9.61946
-12.5903 0 21.7047
-2.41476 0 12.6331
83.8308 0 39.6366
6.21429 0 10.8354
19.7449 0 15.5824
13.5456 0 13.9545
-10.3652 0 3.41084
113.118 0 14.0536
-12.6807 0 -1.99436
56.99 0 -70.9387
-24.2009 0 14.148
14.6034 0 -5.88874
25.5575 0 -11.0772
7.50407 0 9.94246
35.3619 0 91.6546
-11.9867 0 -5.46938
-6.21817 0 0.870776
-8.38494 0 7.26448
-17.6976 0 8.12113
10.8461 0 21.3103
-8.07011 0 8.21784
-7.37796 0 -9.77074
-7.54793 0 -13.4291
76.2544 0 -38.2207
1.7768 0 11.1491
51.5741 0 11.1202
72.7508 0 72.0335
26.2478 0 48.5802
33.1184 0 31.5604
-5.70119 0 8.12583
-3.89549 0 -16.0794
9.3314 0 16.5919
10.791 0 -3.24703
5.82212 0 6.39119
91.9754 0 80.567
-2.97156 0 -16.5638
-2.84261 0 -9.27139
-5.65569 0 -7.16638
-1.62075 0 -4.95492
-13.9902 0 -5.92961
13.1619 0 11.2228
-6.77267 0 5.42616
17.2636 0 2.2447
66.4206 0 -73.7571
-2.69969 0 0.0951638
-67.132 0 36.8156
-5.01624 0 16.9364
108.929 0 12.8112
-17.3947 0 -108.229
-26.8453 0 49.4066
16.3555 0 18.1041
-1.77449 0 -11.7997
12.2692 0 -0.495494
-1.29661 0 -12.3985
5.84023 0 1.75183
-24.0389 0 -7.15013
-40.9477 0 -20.8703
219.798 0 34.7554
-14.0083 0 9.07805
73.6352 0 56.7344
-11.2994 0 -5.80806
-4.18963 0 1.05752
-25.8769 0 -20.6509
92.6019 0 1.73951
-14.0213 0 -15.2654
3.82864 0 -3.08807
-4.5928 0 -2.7033
1.81187 0 -82.4875
-90.6227 0 14.6195
-43.5635 0 69.1369
-18.4933 0 5.87131
-7.14366 0 3.12022
17.7894 0 7.26873
45.7165 0 -37.7431
-11.9455 0 28.0247
21.3315 0 -5.12502
16.9034 0 7.10711
0.96712 0 -5.13166
12.6943 0 7.47791
-0.337896 0 4.1155
-7.9008 0 12.1333
35.0969 0 13.0616
-2.84872 0 34.6723
15.8441 0 -33.6971
6.99209 0 9.5793
-12.5495 0 -30.0997
-17.8603 0 -10.761
-77.4937 0 -58.6271
-8.316 0 15.1142
-11.0951 0 -19.971
52.3427 0 -53.8828
24.3337 0 -16.4223
-2.69544 0 13.4224
-29.8263 0 -12.3081
-14.3808 0 15.6327
-6.04649 0 2.54745
0.969552 0 3.69949
4.10816 0 12.3557
12.6076 0 0.570609
2.60168 0 6.15043
6.61619 0 3.74042
-55.2482 0 56.0054
26.2044 0 38.6943
-45.6338 0 13.7939
32.0325 0 -19.8411
-2.48592 0 3.64815
-13.2805 0 5.91235
3.21855 0 -35.4106
-6.70217 0 3.67419
14.8163 0 -11.2063
-1.22776 0 -46.609
-7.83035 0 20.5958
1.25709 0 -15.7454
-3.36785 0 -1.41256
-171.646 0 -82.1599
23.2456 0 67.293
-79.6794 0 -76.8793
19.8443 0 11.5537
25.3215 0 -20.8888
-16.2405 0 -25.2901
19.9998 0 7.86667
-13.7872 0 38.8302
-90.6771 0 -7.06086
1.52736 0 8.0676
-14.9902 0 -17.1468
13.1425 0 -13.9336
-52.1287 0 -44.5058
20.4426 0 -3.54464
28.7298 0 5.12407
-46.9387 0 0.0374564
7.37013 0 2.97125
4.28921 0 0.00982308
-27.6935 0 5.63363
-27.6201 0 18.5802
10.7183 0 16.4527
3.13611 0 -9.39985
-17.5413 0 -31.0646
2.39818 0 -34.0514
5.05314 0 7.55538
7.71337 0 -1.87306
-5.60172 0 -7.92266
2.53689 0 3.2899
-6.87667 0 -3.25662
-50.2712 0 -18.3773
10.4445 0 -3.43363
-5.42946 0 5.31366
-49.6463 0 151.109
-21.292 0 -13.7499
18.5535 0 -14.4916
-37.3548 0 18.9116
0.607836 0 23.3003
-1.59656 0 -17.006
4.90111 0 9.32593
-1.33101 0 7.54986
-0.585695 0 0.675718
-11.1798 0 -3.82897
6.92538 0 -19.0099
-30.62 0 13.8426
26.5118 0 -26.1983
-22.1711 0 -19.5261
-65.9167 0 15.11
-16.5433 0 -119.268
13.123 0 9.03165
-63.8376 0 47.3704
1.88078 0 2.95931
-12.8995 0 -19.4116
-1.4017 0 12.0657
-16.725 0 2.52198
-80.3402 0 -77.8197
-11.0785 0 0.799913
-12.1065 0 3.66193
-16.2687 0 6.92133
4.46583 0 -66.016
-15.9644 0 -2.31835
-3.77758 0 -4.45234
-36.4153 0 37.0056
-80.3805 0 -11.5049
-28.4479 0 9.64954
20.0325 0 -7.34783
-18.887 0 -33.0307