# vtk DataFile Version 3.0
SiWiRVisFile
ASCII
DATASET UNSTRUCTURED_GRID
POINTS 1600 DOUBLE
79.2015 100 76.2412
80.2746 100 76.5377
81.3381 100 76.5822
82.4363 100 76.6332
83.5217 100 76.6581
84.5845 100 76.6282
85.7147 100 76.6076
86.871 100 76.5698
88.033 100 76.5328
89.1914 100 76.5062
90.3397 100 76.4888
91.4747 100 76.4806
92.601 100 76.4752
93.7264 100 76.4723
94.8517 100 76.47
95.9749 100 76.4698
97.0964 100 76.4701
98.2178 100 76.4697
99.3394 100 76.4694
100.461 100 76.4694
101.584 100 76.4694
102.706 100 76.4698
103.828 100 76.4698
104.95 100 76.4696
106.073 100 76.4695
107.195 100 76.4696
108.318 100 76.4696
109.44 100 76.4695
110.563 100 76.4695
111.685 100 76.4695
112.807 100 76.4695
113.93 100 76.4695
115.052 100 76.4695
116.175 100 76.4696
117.297 100 76.4696
118.42 100 76.4695
119.542 100 76.4696
120.664 100 76.4698
121.787 100 76.4698
122.909 100 76.4694
124.031 100 76.4694
125.153 100 76.4694
126.275 100 76.4697
127.396 100 76.4701
128.518 100 76.4698
129.641 100 76.47
130.766 100 76.4723
131.891 100 76.4752
133.018 100 76.4806
134.153 100 76.4888
135.301 100 76.5062
136.459 100 76.5328
137.621 100 76.5698
138.778 100 76.6076
139.908 100 76.6282
140.971 100 76.6581
142.056 100 76.6332
143.154 100 76.5822
144.218 100 76.5377
145.291 100 76.2412
79.498 100 77.3143
80.7056 100 77.7457
81.9085 100 77.5742
83.0499 100 77.6482
84.1613 100 77.5993
85.2573 100 77.569
86.3354 100 77.5636
87.3965 100 77.5652
88.4463 100 77.5706
89.4959 100 77.5747
90.5451 100 77.5743
91.5952 100 77.5749
92.6663 100 77.5747
93.7259 100 77.5737
94.8246 100 77.5722
95.9488 100 77.5722
97.0758 100 77.5725
98.2026 100 77.572
99.3287 100 77.5716
100.453 100 77.5714
101.577 100 77.5714
102.701 100 77.5717
103.824 100 77.5719
104.947 100 77.5718
106.071 100 77.5718
107.195 100 77.572
108.317 100 77.5721
109.44 100 77.5719
110.563 100 77.5719
111.685 100 77.5719
112.807 100 77.5719
113.93 100 77.5719
115.052 100 77.5719
116.175 100 77.5721
117.298 100 77.572
118.422 100 77.5718
119.545 100 77.5718
120.668 100 77.5719
121.792 100 77.5717
122.915 100 77.5714
124.039 100 77.5714
125.164 100 77.5716
126.29 100 77.572
127.417 100 77.5725
128.544 100 77.5722
129.668 100 77.5722
130.767 100 77.5737
131.826 100 77.5747
132.897 100 77.5749
133.947 100 77.5743
134.996 100 77.5747
136.046 100 77.5706
137.096 100 77.5652
138.157 100 77.5636
139.235 100 77.569
140.331 100 77.5993
141.442 100 77.6482
142.584 100 77.5742
143.787 100 77.7457
144.994 100 77.3143
79.5432 100 78.378
80.5358 100 78.9494
81.4978 100 78.5364
82.5705 100 78.6268
83.6997 100 78.6055
84.8319 100 78.6195
85.9586 100 78.6364
87.0868 100 78.6506
88.2123 100 78.6624
89.3311 100 78.67
90.4526 100 78.6722
91.5703 100 78.6733
92.671 100 78.6726
93.7717 100 78.672
94.8853 100 78.6715
96.0016 100 78.6719
97.1177 100 78.6724
98.2348 100 78.6721
99.3531 100 78.6718
100.472 100 78.6718
101.592 100 78.6711
102.712 100 78.6722
103.832 100 78.6722
104.953 100 78.6721
106.075 100 78.672
107.197 100 78.6721
108.319 100 78.6721
109.441 100 78.6717
110.563 100 78.6716
111.685 100 78.6717
112.807 100 78.6717
113.93 100 78.6716
115.052 100 78.6717
116.173 100 78.6721
117.295 100 78.6721
118.417 100 78.672
119.539 100 78.6721
120.66 100 78.6722
121.78 100 78.6722
122.901 100 78.6711
124.02 100 78.6718
125.139 100 78.6718
126.258 100 78.6721
127.375 100 78.6724
128.491 100 78.6719
129.607 100 78.6715
130.721 100 78.672
131.821 100 78.6726
132.922 100 78.6733
134.04 100 78.6722
135.161 100 78.67
136.28 100 78.6624
137.406 100 78.6506
138.534 100 78.6364
139.66 100 78.6195
140.793 100 78.6055
141.922 100 78.6268
142.995 100 78.5364
143.957 100 78.9494
144.949 100 78.378
79.5941 100 79.4767
80.6094 100 80.0909
81.5851 100 79.607
82.7142 100 79.7579
83.837 100 79.7421
84.9464 100 79.7528
86.045 100 79.763
87.1386 100 79.768
88.2329 100 79.7718
89.3218 100 79.7736
90.4139 100 79.7719
91.5156 100 79.7718
92.6062 100 79.7711
93.7014 100 79.7711
94.8189 100 79.7706
95.9448 100 79.7711
97.0718 100 79.7717
98.1984 100 79.7715
99.3246 100 79.7714
100.451 100 79.7717
101.575 100 79.7231
102.7 100 79.7722
103.825 100 79.7716
104.949 100 79.7714
106.071 100 79.7713
107.194 100 79.7713
108.316 100 79.7712
109.439 100 79.7709
110.562 100 79.7709
111.685 100 79.7711
112.808 100 79.7711
113.931 100 79.7709
115.054 100 79.7709
116.176 100 79.7712
117.299 100 79.7713
118.421 100 79.7713
119.544 100 79.7714
120.667 100 79.7716
121.792 100 79.7722
122.917 100 79.7231
124.042 100 79.7717
125.168 100 79.7714
126.294 100 79.7715
127.421 100 79.7717
128.548 100 79.7711
129.673 100 79.7706
130.791 100 79.7711
131.886 100 79.7711
132.977 100 79.7718
134.079 100 79.7719
135.171 100 79.7736
136.259 100 79.7718
137.354 100 79.768
138.447 100 79.763
139.546 100 79.7528
140.655 100 79.7421
141.778 100 79.7579
142.907 100 79.607
143.883 100 80.0909
144.898 100 79.4767
79.6189 100 80.5624
80.5612 100 81.1921
81.5653 100 80.7323
82.7023 100 80.8817
83.8264 100 80.8641
84.939 100 80.8685
86.0431 100 80.8723
87.1457 100 80.8719
88.2496 100 80.872
89.347 100 80.8715
90.4508 100 80.8698
91.5581 100 80.87
92.6528 100 80.87
93.7506 100 80.8702
94.8669 100 80.8699
95.9869 100 80.8705
97.1064 100 80.8711
98.2259 100 80.871
99.3459 100 80.8709
100.469 100 80.8729
101.59 100 80.6227
102.707 100 80.8721
103.831 100 80.8439
104.952 100 80.8471
106.074 100 80.8417
107.196 100 80.8367
108.318 100 80.8315
109.44 100 80.8275
110.563 100 80.8259
111.685 100 80.8253
112.807 100 80.8253
113.93 100 80.8259
115.052 100 80.8275
116.174 100 80.8315
117.297 100 80.8367
118.419 100 80.8417
119.54 100 80.8471
120.662 100 80.8439
121.785 100 80.8721
122.903 100 80.6227
124.023 100 80.8729
125.146 100 80.8709
126.267 100 80.871
127.386 100 80.8711
128.505 100 80.8705
129.625 100 80.8699
130.742 100 80.8702
131.84 100 80.87
132.934 100 80.87
134.042 100 80.8698
135.145 100 80.8715
136.243 100 80.872
137.347 100 80.8719
138.449 100 80.8723
139.553 100 80.8685
140.666 100 80.8641
141.79 100 80.8817
142.927 100 80.7323
143.931 100 81.1921
144.873 100 80.5624
79.5887 100 81.6245
80.5294 100 82.2527
81.5792 100 81.8567
82.7114 100 81.9879
83.8287 100 81.9703
84.936 100 81.9711
86.0361 100 81.9716
87.1349 100 81.9698
88.2359 100 81.9689
89.3307 100 81.9682
90.4317 100 81.9672
91.5365 100 81.9676
92.6283 100 81.9678
93.724 100 81.9678
94.8398 100 81.9676
95.9625 100 81.9679
97.0858 100 81.9682
98.2092 100 81.9679
99.3335 100 81.9678
100.465 100 81.9725
101.578 100 81.6856
102.697 100 81.9088
103.827 100 81.7598
104.95 100 81.7667
106.072 100 81.7565
107.195 100 81.7488
108.318 100 81.7423
109.44 100 81.7378
110.563 100 81.7361
111.685 100 81.7356
112.807 100 81.7356
113.93 100 81.7361
115.052 100 81.7378
116.175 100 81.7423
117.297 100 81.7488
118.42 100 81.7565
119.543 100 81.7667
120.665 100 81.7598
121.795 100 81.9088
122.915 100 81.6856
124.028 100 81.9725
125.159 100 81.9678
126.283 100 81.9679
127.407 100 81.9682
128.53 100 81.9679
129.653 100 81.9676
130.768 100 81.9678
131.864 100 81.9678
132.956 100 81.9676
134.061 100 81.9672
135.162 100 81.9682
136.256 100 81.9689
137.357 100 81.9698
138.456 100 81.9716
139.556 100 81.9711
140.664 100 81.9703
141.781 100 81.9879
142.913 100 81.8567
143.963 100 82.2527
144.904 100 81.6245
79.5641 100 82.7526
80.5312 100 83.2971
81.5995 100 82.9642
82.7217 100 83.071
83.8326 100 83.0554
84.9372 100 83.0552
86.0365 100 83.0548
87.1358 100 83.0534
88.2376 100 83.053
89.3336 100 83.053
90.4368 100 83.0525
91.543 100 83.0529
92.6358 100 83.0529
93.734 100 83.0531
94.8504 100 83.0529
95.9731 100 83.0532
97.0954 100 83.0535
98.2173 100 83.0531
99.3411 100 83.0528
100.479 100 83.0628
101.585 100 82.7325
102.697 100 82.841
103.828 100 82.7995
104.951 100 82.8015
106.073 100 82.7999
107.195 100 82.7982
108.318 100 82.7963
109.44 100 82.7946
110.563 100 82.7936
111.685 100 82.7932
112.807 100 82.7932
113.93 100 82.7936
115.052 100 82.7946
116.175 100 82.7963
117.297 100 82.7982
118.419 100 82.7999
119.542 100 82.8015
120.665 100 82.7995
121.795 100 82.841
122.908 100 82.7325
124.013 100 83.0628
125.151 100 83.0528
126.275 100 83.0531
127.397 100 83.0535
128.519 100 83.0532
129.642 100 83.0529
130.758 100 83.0531
131.857 100 83.0529
132.949 100 83.0529
134.056 100 83.0525
135.159 100 83.053
136.255 100 83.053
137.357 100 83.0534
138.456 100 83.0548
139.555 100 83.0552
140.66 100 83.0554
141.771 100 83.071
142.893 100 82.9642
143.961 100 83.2971
144.928 100 82.7526
79.5168 100 83.9125
80.5407 100 84.3267
81.618 100 84.0613
82.7274 100 84.1424
83.8323 100 84.1294
84.9351 100 84.1284
86.0341 100 84.1277
87.1339 100 84.1264
88.2361 100 84.1266
89.3322 100 84.1269
90.4354 100 84.1268
91.5412 100 84.1272
92.6334 100 84.1272
93.7317 100 84.1274
94.8481 100 84.1275
95.9703 100 84.1275
97.0928 100 84.1278
98.2153 100 84.1273
99.3418 100 84.1269
100.491 100 84.1441
101.579 100 83.6462
102.694 100 83.9116
103.825 100 83.8734
104.951 100 83.875
106.073 100 83.8607
107.196 100 83.8391
108.318 100 83.8138
109.44 100 83.7952
110.563 100 83.7845
111.685 100 83.7801
112.807 100 83.7801
113.93 100 83.7845
115.052 100 83.7952
116.174 100 83.8138
117.297 100 83.8391
118.419 100 83.8607
119.542 100 83.875
120.668 100 83.8734
121.799 100 83.9116
122.914 100 83.6462
124.002 100 84.1441
125.151 100 84.1269
126.277 100 84.1273
127.4 100 84.1278
128.522 100 84.1275
129.644 100 84.1275
130.761 100 84.1274
131.859 100 84.1272
132.951 100 84.1272
134.057 100 84.1268
135.16 100 84.1269
136.256 100 84.1266
137.359 100 84.1264
138.458 100 84.1277
139.557 100 84.1284
140.66 100 84.1294
141.765 100 84.1424
142.874 100 84.0613
143.952 100 84.3267
144.976 100 83.9125
79.4763 100 85.0803
80.5472 100 85.3321
81.6323 100 85.1693
82.7328 100 85.2237
83.8322 100 85.2145
84.9331 100 85.2129
86.0319 100 85.2118
87.1326 100 85.2107
88.2354 100 85.2108
89.3316 100 85.2107
90.4352 100 85.2104
91.5411 100 85.2105
92.6329 100 85.2104
93.7321 100 85.2105
94.8486 100 85.2105
95.9705 100 85.2105
97.0929 100 85.2106
98.2158 100 85.21
99.3461 100 85.2092
100.507 100 85.2327
[...]
POINT_DATA 1600
SCALARS mass double
LOOKUP_TABLE default
1
1
1
1
1
1
1
1
1
1
1
1
1
1
1
1
1
1
1
1
1
1
1
1
1
1
1
1
1
1
1
1
1
1
1
1
1
1
1
1
1
1
1
1
1
1
1
1
1
1
1
1
1
1
1
1
1
1
1
1
1
1
1
1
1
1
1
1
1
1
1
1
1
1
1
1
1
1
1
1
1
1
1
1
1
1
1
1
1
1
1
1
1
1
1
1
1
1
1
1
1
1
1
1
1
1
1
1
1
1
1
1
1
1
1
1
1
1
1
1
1
1
1
1
1
1
1
1
1
1
1
1
1
1
1
1
1
1
1
1
1
1
1
1
1
1
1
1
1
1
1
1
1
1
1
1
1
1
1
1
1
1
1
1
1
1
1
1
1
1
1
1
1
1
1
1
1
1
1
1
1
1
1
1
1
1
1
1
1
1
1
1
1
1
1
1
1
1
1
1
1
1
1
1
1
1
1
1
1
1
1
1
1
1
1
1
1
1
1
1
1
1
1
1
1
1
1
1
1
1
1
1
1
1
1
1
1
1
1
1
1
1
1
1
1
1
1
1
1
1
1
1
1
1
1
1
1
1
1
1
1
1
1
1
1
1
1
1
1
1
1
1
1
1
1
1
1
1
1
1
1
1
1
1
1
1
1
1
1
1
1
1
1
1
1
1
1
1
1
1
1
1
1
1
1
1
1
1
1
1
1
1
1
1
1
1
1
1
1
1
1
1
1
1
1
1
1
1
1
1
1
1
1
1
1
1
1
1
1
1
1
1
1
1
1
1
1
1
1
1
1
1
1
1
1
1
1
1
1
1
1
1
1
1
1
1
1
1
1
1
1
1
1
1
1
1
1
1
1
1
1
1
1
1
1
1
1
1
1
1
1
1
1
1
1
1
1
1
1
1
1
1
1
1
1
1
1
1
1
1
1
1
1
1
1
1
1
1
1
1
1
1
1
1
1
1
1
1
1
1
1
1
1
1
1
1
1
1
1
1
1
1
1
1
1
1
1
1
1
1
1
1
1
1
1
1
1
1
1
1
1
1
1
1
1
1
1
1
1
1
1
1
1
1
1
1
1
1
1
1
1
1
1
1
1
1
1
1
1
1
1
1
1
1
1
1
1
1
1
1
1
1
1
1
1
1
1
1
1
1
1
1
1
1
1
1
1
1
1
1
1
1
1
1
1
1
1
1
1
1
1
1
1
1
1
1
1
1
1
1
1
1
1
1
1
1
1
1
1
1
1
1
1
1
1
1
1
1
1
1
1
1
1
1
1
1
1
1
1
1
1
1
1
1
1
1
1
1
1
1
1
1
1
1
1
1
1
1
1
1
1
1
1
1
1
1
1
1
1
1
1
1
1
1
1
1
1
1
1
1
1
1
1
1
1
1
1
1
1
1
1
1
1
1
1
1
1
1
1
1
1
1
1
1
1
1
1
1
1
1
1
1
1
1
1
1
1
1
1
1
1
1
1
1
1
1
1
1
1
1
1
1
1
1
1
1
1
1
1
1
1
1
1
1
1
1
1
1
1
1
1
1
1
1
1
1
1
1
1
1
1
1
1
1
1
1
1
1
1
1
1
1
1
1
1
1
1
1
1
1
1
1
1
1
1
1
1
1
1
1
1
1
1
1
1
1
1
1
1
1
1
1
1
1
1
1
1
1
1
1
1
1
1
1
1
1
1
1
1
1
1
1
1
1
1
1
1
1
1
1
1
1
1
1
1
1
1
1
1
1
1
1
1
1
1
1
1
1
1
1
1
1
1
1
1
1
1
1
1
1
1
1
1
1
1
1
1
1
1
1
1
1
1
1
1
1
1
1
1
1
1
1
1
1
1
1
1
1
1
1
1
1
1
1
1
1
1
1
1
1
1
1
1
1
1
1
1
1
1
1
1
1
1
1
1
1
1
1
1
1
1
1
1
1
1
1
1
1
1
1
1
1
1
1
1
1
1
1
1
1
1
1
1
1
1
1
1
1
1
1
1
1
1
1
1
1
1
1
1
1
1
1
1
1
1
1
1
1
1
1
1
1
1
1
1
1
1
1
1
1
1
1
1
1
1
1
1
1
1
1
1
1
1
1
1
1
1
1
1
1
1
1
1
1
1
1
1
1
1
1
1
1
1
1
1
1
1
1
1
1
1
1
1
1
1
1
1
1
1
1
1
1
1
1
1
1
1
1
1
1
1
1
1
1
1
1
1
1
1
1
1
1
1
1
1
1
1
1
1
1
1
1
1
1
1
1
1
1
1
1
1
1
1
1
1
1
1
1
1
1
1
1
1
1
1
1
1
1
1
1
1
1
1
1
1
1
1
1
1
1
1
1
1
1
1
1
1
1
1
1
1
1
1
1
1
1
1
1
1
1
1
1
1
1
1
1
1
1
1
1
1
1
1
1
1
1
1
1
1
1
1
1
1
1
1
1
1
1
1
1
1
1
1
1
1
1
1
1
1
1
1
1
1
1
1
1
1
1
1
1
1
1
1
1
1
1
1
1
1
1
1
1
1
1
1
1
1
1
1
1
1
1
1
1
1
1
1
1
1
1
1
1
1
1
1
1
1
1
1
1
1
1
1
1
1
1
1
1
1
1
1
1
1
1
1
1
1
1
1
1
1
1
1
1
1
1
1
1
1
1
1
1
1
1
1
1
1
1
1
1
1
1
1
1
1
1
1
1
1
1
1
1
1
1
1
1
1
1
1
1
1
1
1
1
1
1
1
1
1
1
1
1
1
1
1
1
1
1
1
1
1
1
1
1
1
1
1
1
1
1
1
1
1
1
1
1
1
1
1
1
1
1
1
1
1
1
1
1
1
1
1
1
1
1
1
1
1
1
1
1
1
1
1
1
1
1
1
1
1
1
1
1
1
1
1
1
1
1
1
1
1
1
1
1
1
1
1
1
1
1
1
1
1
1
1
1
1
1
1
1
1
1
1
1
1
1
1
1
1
1
1
1
1
1
1
1
1
1
1
1
1
1
1
1
1
1
1
1
1
1
1
1
1
1
1
1
1
1
1
1
1
1
1
1
1
1
1
1
1
1
1
1
1
1
1
1
1
1
1
1
1
1
1
1
1
1
1
1
1
1
1
1
1
1
1
1
1
1
1
1
1
1
1
1
1
1
1
1
1
1
1
1
1
1
1
1
1
1
1
1
1
1
1
1
1
1
1
1
1
1
1
1
1
1
1
1
1
1
1
1
1
1
1
1
1
1
1
1
1
1
1
1
1
1
1
1
1
1
1
1
1
1
1
1
1
1
1
1
1
1
1
1
1
1
1
1
1
1
1
1
1
1
1
1
1
1
1
1
1
1
1
1
1
1
1
1
1
1
1
1
1
1
1
1
1
1
1
1
1
1
1
1
1
1
1
1
1
1
1
1
1
1
1
1
1
1
1
1
1
1
1
1
1
1
1
1
1
1
1
1
1
1
1
1
1
1
1
1
1
1
1
1
1
1
1
1
1
1
1
1
1
1
1
1
1
1
1
1
1
1
1
1
1
1
1
1
1
1
1
1
1
1
1
1
1
1
1
1
1
1
1
1
1
1
1
1
1
1
1
1
1
1
1
1
1
1
1
1
1
1
1
1
1
1
1
1
1
1
1
1
VECTORS force double
-2.4937 0 -2.47337
-14.8529 0 6.3357
18.2186 0 16.7354
8.02318 0 -5.12204
-9.26417 0 -1.18314
48.9769 0 -22.7639
19.276 0 -19.8973
0.460268 0 4.94919
-6.54296 0 10.8764
-7.71752 0 8.44577
-7.43164 0 4.37948
-5.32668 0 1.65076
-1.68244 0 1.26104
-0.32076 0 0.791778
-0.205749 0 0.512306
0.233715 0 0.227531
0.580322 0 0.138611
0.583522 0 0.0391359
0.499588 0 0.00356274
0.40108 0 -0.0302522
0.336141 0 -0.0641622
0.286256 0 -0.074745
0.274152 0 -0.0288986
0.0805221 0 -0.0596591
0.039349 0 -0.0157405
0.0222909 0 0.0454882
0.0105634 0 0.0728869
0.00413716 0 0.0139672
0.000674898 0 0.00939311
-4.58149e-05 0 0.0138023
4.58149e-05 0 0.0138023
-0.000674898 0 0.00939311
-0.00413716 0 0.0139672
-0.0105634 0 0.0728869
-0.0222909 0 0.0454882
-0.039349 0 -0.0157405
-0.0805221 0 -0.0596591
-0.274152 0 -0.0288986
-0.286256 0 -0.074745
-0.336141 0 -0.0641622
-0.40108 0 -0.0302522
-0.499588 0 0.00356274
-0.583522 0 0.0391359
-0.580322 0 0.138611
-0.233715 0 0.227531
0.205749 0 0.512306
0.32076 0 0.791778
1.68244 0 1.26104
5.32668 0 1.65076
7.43164 0 4.37948
7.71752 0 8.44577
6.54296 0 10.8764
-0.460268 0 4.94919
-19.276 0 -19.8973
-48.9769 0 -22.7639
9.26417 0 -1.18314
-8.02318 0 -5.12204
-18.2186 0 16.7354
14.8529 0 6.3357
2.4937 0 -2.47337
6.31431 0 -14.7642
-8.76695 0 -8.72232
6.27546 0 -17.1758
-8.1105 0 -4.82664
-13.1104 0 33.2617
-21.3938 0 33.1364
-9.70571 0 7.94993
-1.12458 0 -0.511405
10.0683 0 -1.79268
8.27929 0 -1.77675
7.4083 0 -1.29875
21.3865 0 -0.0722596
-7.64537 0 -0.0690934
23.0228 0 0.496104
6.54891 0 0.500435
-1.3406 0 0.343673
-1.79941 0 0.232784
-1.58067 0 0.238807
-1.47551 0 0.213908
-1.18405 0 0.288219
-0.917581 0 0.069475
-0.745646 0 0.329924
-0.661488 0 0.216758
-0.493998 0 0.0994789
-0.439291 0 0.00497616
-0.434601 0 -0.0300597
-0.148194 0 0.0212325
-0.0355944 0 0.00777449
-0.0095205 0 -0.0398404
-0.00217593 0 -0.0148989
0.00217593 0 -0.0148989
0.0095205 0 -0.0398404
0.0355944 0 0.00777449
0.148194 0 0.0212325
0.434601 0 -0.0300597
0.439291 0 0.00497616
0.493998 0 0.0994789
0.661488 0 0.216758
0.745646 0 0.329924
0.917581 0 0.069475
1.18405 0 0.288219
1.47551 0 0.213908
1.58067 0 0.238807
1.79941 0 0.232784
1.3406 0 0.343673
-6.54891 0 0.500435
-23.0228 0 0.496104
7.64537 0 -0.0690934
-21.3865 0 -0.0722596
-7.4083 0 -1.29875
-8.27929 0 -1.77675
-10.0683 0 -1.79268
1.12458 0 -0.511405
9.70571 0 7.94993
21.3938 0 33.1364
13.1104 0 33.2617
8.1105 0 -4.82664
-6.27546 0 -17.1758
8.76695 0 -8.72232
-6.31431 0 -14.7642
16.9497 0 18.4014
-16.9877 0 6.18866
3.25631 0 2.4818
6.55722 0 13.5467
-6.26271 0 7.68562
-7.78768 0 -4.11289
-5.42518 0 -6.72335
-6.2171 0 -7.13048
-6.56063 0 -5.31714
-2.56142 0 -3.25674
-2.38965 0 -1.84306
-5.34265 0 -0.162864
1.81122 0 0.40858
7.16401 0 0.324884
3.49715 0 -0.189125
2.66995 0 -0.114879
2.54454 0 -0.103328
2.27273 0 -0.184115
1.75873 0 -0.230007
1.99119 0 0.404142
1.74287 0 -31.2426
0.37072 0 0.315
0.653902 0 -0.316168
0.809211 0 -0.329928
0.65896 0 -0.280128
0.473454 0 -0.255726
0.297735 0 -0.261056
0.526504 0 -0.15097
0.347063 0 -0.152134
0.0180226 0 -0.205383
-0.0180226 0 -0.205383
-0.347063 0 -0.152134
-0.526504 0 -0.15097
-0.297735 0 -0.261056
-0.473454 0 -0.255726
-0.65896 0 -0.280128
-0.809211 0 -0.329928
-0.653902 0 -0.316168
-0.37072 0 0.315
-1.74287 0 -31.2426
-1.99119 0 0.404142
-1.75873 0 -0.230007
-2.27273 0 -0.184115
-2.54454 0 -0.103328
-2.66995 0 -0.114879
-3.49715 0 -0.189125
-7.16401 0 0.324884
-1.81122 0 0.40858
5.34265 0 -0.162864
2.38965 0 -1.84306
2.56142 0 -3.25674
6.56063 0 -5.31714
6.2171 0 -7.13048
5.42518 0 -6.72335
7.78768 0 -4.11289
6.26271 0 7.68562
-6.55722 0 13.5467
-3.25631 0 2.4818
16.9877 0 6.18866
-16.9497 0 18.4014
-4.8414 0 7.88366
-5.75865 0 -12.1514
13.6334 0 6.94231
-3.89923 0 -3.56246
-2.62254 0 -5.97919
-2.41722 0 -5.95326
-0.875014 0 -5.55088
1.35353 0 -4.35214
-2.31242 0 -2.82002
0.827468 0 -1.35289
2.47964 0 -0.459878
-7.23544 0 -0.10628
-0.796532 0 -0.165006
5.26228 0 -0.568291
-0.583899 0 -0.452695
-2.28843 0 -0.323155
-2.25852 0 -0.236422
-1.93012 0 -0.172928
-1.27926 0 -0.0761801
1.94894 0 2.2998
-12.0241 0 -658.15
-4.19072 0 2.50573
-0.674608 0 -14.1739
-0.548051 0 -11.5172
-0.299883 0 -15.1125
-0.229026 0 -18.65
-0.208444 0 -22.6453
-0.192566 0 -25.946
-0.107082 0 -27.3916
-0.0238891 0 -28.2413
0.0238891 0 -28.2413
0.107082 0 -27.3916
0.192566 0 -25.946
0.208444 0 -22.6453
0.229026 0 -18.65
0.299883 0 -15.1125
0.548051 0 -11.5172
0.674608 0 -14.1739
4.19072 0 2.50573
12.0241 0 -658.15
-1.94894 0 2.2998
1.27926 0 -0.0761801
1.93012 0 -0.172928
2.25852 0 -0.236422
2.28843 0 -0.323155
0.583899 0 -0.452695
-5.26228 0 -0.568291
0.796532 0 -0.165006
7.23544 0 -0.10628
-2.47964 0 -0.459878
-0.827468 0 -1.35289
2.31242 0 -2.82002
-1.35353 0 -4.35214
0.875014 0 -5.55088
2.41722 0 -5.95326
2.62254 0 -5.97919
3.89923 0 -3.56246
-13.6334 0 6.94231
5.75865 0 -12.1514
4.8414 0 7.88366
-1.80383 0 -10.524
29.8033 0 -29.1182
9.64987 0 -7.06125
-5.81688 0 -3.77705
-3.17196 0 -4.95759
-2.75471 0 -4.32378
-0.160901 0 -3.51019
1.18019 0 -2.32244
-1.78207 0 -1.29374
3.65721 0 -0.731858
2.61199 0 -0.550886
-3.60579 0 -0.556679
3.00746 0 -0.846444
8.37443 0 -0.967347
2.87435 0 -0.92357
1.66069 0 -1.01541
1.6293 0 -1.03894
1.49272 0 -1.10495
1.81431 0 -1.1778
10.2425 0 0.905146
11.8432 0 661.856
-4.31182 0 -45.0828
3.90264 0 -504.388
1.62105 0 -473.329
1.32945 0 -512.62
0.742255 0 -533.7
0.460566 0 -543.147
0.342306 0 -543.893
0.214129 0 -543.014
0.0973852 0 -542.619
-0.0973852 0 -542.619
-0.214129 0 -543.014
-0.342306 0 -543.893
-0.460566 0 -543.147
-0.742255 0 -533.7
-1.32945 0 -512.62
-1.62105 0 -473.329
-3.90264 0 -504.388
4.31182 0 -45.0828
-11.8432 0 661.856
-10.2425 0 0.905146
-1.81431 0 -1.1778
-1.49272 0 -1.10495
-1.6293 0 -1.03894
-1.66069 0 -1.01541
-2.87435 0 -0.92357
-8.37443 0 -0.967347
-3.00746 0 -0.846444
3.60579 0 -0.556679
-2.61199 0 -0.550886
-3.65721 0 -0.731858
1.78207 0 -1.29374
-1.18019 0 -2.32244
0.160901 0 -3.51019
2.75471 0 -4.32378
3.17196 0 -4.95759
5.81688 0 -3.77705
-9.64987 0 -7.06125
-29.8033 0 -29.1182
1.80383 0 -10.524
-22.6681 0 44.9299
19.9538 0 -18.0793
-1.22298 0 -12.5994
-5.91839 0 -8.46493
-3.1115 0 -9.37209
-2.77104 0 -8.36789
-0.636094 0 -7.54137
0.648257 0 -6.90977
-3.04434 0 -6.2222
2.13241 0 -5.75725
0.858051 0 -5.89497
-6.28433 0 -5.9527
0.970816 0 -6.11958
6.32165 0 -5.94867
0.638203 0 -6.04678
-1.07057 0 -5.94441
-1.10712 0 -5.80592
-0.779634 0 -5.79817
0.937111 0 -6.00624
6.64226 0 -1.10585
-0.937293 0 -19.2683
-0.561927 0 -340.612
-6.05993 0 473.914
-1.63096 0 436.112
-0.90953 0 488.864
-0.491205 0 519.942
-0.327622 0 537.868
-0.227965 0 544.379
-0.169264 0 545.59
-0.0231722 0 546.083
0.0231722 0 546.083
0.169264 0 545.59
0.227965 0 544.379
0.327622 0 537.868
0.491205 0 519.942
0.90953 0 488.864
1.63096 0 436.112
6.05993 0 473.914
0.561927 0 -340.612
0.937293 0 -19.2683
-6.64226 0 -1.10585
-0.937111 0 -6.00624
0.779634 0 -5.79817
1.10712 0 -5.80592
1.07057 0 -5.94441
-0.638203 0 -6.04678
-6.32165 0 -5.94867
-0.970816 0 -6.11958
6.28433 0 -5.9527
-0.858051 0 -5.89497
-2.13241 0 -5.75725
3.04434 0 -6.2222
-0.648257 0 -6.90977
0.636094 0 -7.54137
2.77104 0 -8.36789
3.1115 0 -9.37209
5.91839 0 -8.46493
1.22298 0 -12.5994
-19.9538 0 -18.0793
22.6681 0 44.9299
-13.3742 0 10.4801
3.00395 0 -6.23794
-2.63196 0 -11.6152
-4.53063 0 -5.05245
-1.96494 0 -6.64278
-1.93055 0 -6.44651
0.103923 0 -6.29369
1.14625 0 -6.40301
-2.34397 0 -6.32086
3.09856 0 -6.46173
1.33218 0 -6.54978
-5.27429 0 -6.50595
2.68508 0 -6.43217
6.8833 0 -6.49093
2.12988 0 -6.41126
0.322226 0 -6.49451
0.426373 0 -6.39554
0.77629 0 -6.47913
3.51325 0 -6.72332
8.63218 0 -1.73666
-3.76236 0 -509.751
1.07156 0 379.592
-3.39188 0 28.9344
0.230462 0 36.1841
0.278165 0 16.637
0.424277 0 -9.24391
0.420732 0 -46.7345
0.311094 0 -82.2577
0.17934 0 -106.407
0.0543779 0 -117.342
-0.0543779 0 -117.342
-0.17934 0 -106.407
-0.311094 0 -82.2577
-0.420732 0 -46.7345
-0.424277 0 -9.24391
-0.278165 0 16.637
-0.230462 0 36.1841
3.39188 0 28.9344
-1.07156 0 379.592
3.76236 0 -509.751
-8.63218 0 -1.73666
-3.51325 0 -6.72332
-0.77629 0 -6.47913
-0.426373 0 -6.39554
-0.322226 0 -6.49451
-2.12988 0 -6.41126
-6.8833 0 -6.49093
-2.68508 0 -6.43217
5.27429 0 -6.50595
-1.33218 0 -6.54978
-3.09856 0 -6.46173
2.34397 0 -6.32086
-1.14625 0 -6.40301
-0.103923 0 -6.29369
1.93055 0 -6.44651
1.96494 0 -6.64278
4.53063 0 -5.05245
2.63196 0 -11.6152
-3.00395 0 -6.23794
13.3742 0 10.4801
6.16166 0 -5.87959
0.952255 0 -28.8784
-2.77784 0 -2.65448
-2.33625 0 8.50932
-0.64171 0 6.71814
-1.56473 0 6.81113
0.30586 0 6.86866
0.963513 0 6.71125
-2.64169 0 6.36636
2.92072 0 5.92414
0.974665 0 5.6012
-5.80911 0 5.45308
2.66189 0 5.30189
6.33518 0 5.23209
1.49577 0 5.12127
-0.0191283 0 5.19871
-0.11152 0 5.14341
0.526409 0 5.04533
4.19005 0 4.58449
9.89966 0 4.43259
-10.4523 0 504.98
-4.8381 0 3.72062
0.397366 0 -231.356
-0.12501 0 -256.334
0.679343 0 -357.511
0.43098 0 -378.661
0.211913 0 -298.837
0.110662 0 -211.91
0.0712516 0 -156.409
0.0306066 0 -135.019
-0.0306066 0 -135.019
-0.0712516 0 -156.409
-0.110662 0 -211.91
-0.211913 0 -298.837
-0.43098 0 -378.661
-0.679343 0 -357.511
0.12501 0 -256.334
-0.397366 0 -231.356
4.8381 0 3.72062
10.4523 0 504.98
-9.89966 0 4.43259
-4.19005 0 4.58449
-0.526409 0 5.04533
0.11152 0 5.14341
0.0191283 0 5.19871
-1.49577 0 5.12127
-6.33518 0 5.23209
-2.66189 0 5.30189
5.80911 0 5.45308
-0.974665 0 5.6012
-2.92072 0 5.92414
2.64169 0 6.36636
-0.963513 0 6.71125
-0.30586 0 6.86866
1.56473 0 6.81113
0.64171 0 6.71814
2.33625 0 8.50932
2.77784 0 -2.65448
-0.952255 0 -28.8784
-6.16166 0 -5.87959
4.95794 0 -6.25986
0.00124869 0 4.02407
-1.03057 0 -3.98032
-0.533983 0 -0.0712147
0.403352 0 -0.787193
-0.906403 0 0.130667
0.690597 0 0.583279
0.765519 0 0.896086
-2.73934 0 0.968505
3.01026 0 1.15308
0.918575 0 1.24531
-5.93135 0 1.32861
3.31088 0 1.38425
6.10667 0 1.35656
1.49653 0 1.37961
0.13165 0 1.44759
-0.0453312 0 1.27089
1.42463 0 1.26764
5.09485 0 0.279516
6.26441 0 1.67801
-4.91969 0 14.1248
-0.589773 0 -152.299
-2.22374 0 115.588
-0.783552 0 161.853
-0.285465 0 319.295
-0.425756 0 386.341
-0.314552 0 349.803
-0.0689907 0 294.748
0.105094 0 257.565
0.0944221 0 237.73
-0.0944221 0 237.73
-0.105094 0 257.565
0.0689907 0 294.748
0.314552 0 349.803
0.425756 0 386.341
0.285465 0 319.295
0.783552 0 161.853
2.22374 0 115.588
0.589773 0 -152.299
4.91969 0 14.1248
-6.26441 0 1.67801
-5.09485 0 0.279516
-1.42463 0 1.26764
0.0453312 0 1.27089
-0.13165 0 1.44759
-1.49653 0 1.37961
-6.10667 0 1.35656
-3.31088 0 1.38425
5.93135 0 1.32861
-0.918575 0 1.24531
-3.01026 0 1.15308
2.73934 0 0.968505
-0.765519 0 0.896086
-0.690597 0 0.583279
0.906403 0 0.130667
-0.403352 0 -0.787193
0.533983 0 -0.0712147
1.03057 0 -3.98032
-0.0012487 0 4.02407
-4.95794 0 -6.25986
1.11085 0 -2.00473
0.334861 0 3.75205
0.774962 0 -2.71371
0.260153 0 -5.12434
1.34247 0 -4.24672
-0.327563 0 -3.67842
0.750163 0 -3.54522
0.775449 0 -3.49611
-2.66153 0 -3.60862
3.06081 0 -3.42708
0.905246 0 -3.12737
-6.10244 0 -2.83303
3.67721 0 -2.64916
5.87742 0 -2.51261
1.37602 0 -2.47948
0.117772 0 -2.39716
0.143408 0 -2.45197
2.33654 0 -2.7207
5.46464 0 -3.78588
-0.888405 0 -3.38226
-3.85304 0 -3.03645
0.0206219 0 53.027
-4.4066 0 108.531
-1.93599 0 93.302
-0.850147 0 47.2647
0.113352 0 21.0653
1.17367 0 -26.7645
1.15031 0 -161.363
0.714267 0 -272.997
0.279064 0 -367.001
-0.279064 0 -367.001
-0.714267 0 -272.997
-1.15031 0 -161.363
-1.17367 0 -26.7645
-0.113352 0 21.0653
0.850147 0 47.2647
1.93599 0 93.302
4.4066 0 108.531
-0.0206219 0 53.027
3.85304 0 -3.03645
0.888405 0 -3.38226
-5.46464 0 -3.78588
-2.33654 0 -2.7207
-0.143408 0 -2.45197
-0.117772 0 -2.39716
-1.37602 0 -2.47948
-5.87742 0 -2.51261
-3.67721 0 -2.64916
6.10244 0 -2.83303
-0.905246 0 -3.12737
-3.06081 0 -3.42708
2.66153 0 -3.60862
-0.775448 0 -3.49611
-0.750163 0 -3.54522
0.327563 0 -3.67842
-1.34247 0 -4.24672
-0.260153 0 -5.12434
-0.774962 0 -2.71371
-0.334861 0 3.75205
-1.11085 0 -2.00473
1.11085 0 2.00473
0.334861 0 -3.75205
0.774962 0 2.71371
0.260153 0 5.12434
1.34247 0 4.24672
-0.327563 0 3.67842
0.750163 0 3.54522
0.775449 0 3.49611
-2.66153 0 3.60862
3.0608 0 3.42705
0.905253 0 3.12733
-6.10219 0 2.83262
3.67801 0 2.65266
5.87829 0 2.51721
1.37147 0 2.42896
0.0930304 0 2.39545
0.605086 0 2.39379
3.05729 0 2.30574
5.03381 0 2.27172
-10.5538 0 -3.99006
0.886882 0 2.34073
-2.22072 0 114.805
-1.83941 0 6.32867
-1.8222 0 7.11191
0.237553 0 4.41612
2.69325 0 -18.2374
2.23968 0 -258.013
0.212227 0 4.42963
0.141281 0 193.839
-0.00620427 0 324.407
0.00620427 0 324.407
-0.141281 0 193.839
-0.212227 0 4.42963
-2.23968 0 -258.013
-2.69325 0 -18.2374
-0.237553 0 4.41612
1.8222 0 7.11191
1.83941 0 6.32867
2.22072 0 114.805
-0.886882 0 2.34073
10.5538 0 -3.99006
-5.03381 0 2.27172
-3.05729 0 2.30574
-0.605086 0 2.39379
-0.0930304 0 2.39545
-1.37147 0 2.42896
-5.87829 0 2.51721
-3.67801 0 2.65266
6.10219 0 2.83262
-0.905253 0 3.12733
-3.0608 0 3.42705
2.66153 0 3.60862
-0.775449 0 3.49611
-0.750163 0 3.54522
0.327563 0 3.67842
-1.34247 0 4.24672
-0.260153 0 5.12434
-0.774962 0 2.71371
-0.334861 0 -3.75205
-1.11085 0 2.00473
4.95794 0 6.25986
0.00124869 0 -4.02407
-1.03057 0 3.98032
-0.533983 0 0.0712147
0.403352 0 0.787193
-0.906403 0 -0.130667
0.690597 0 -0.583279
0.765518 0 -0.896089
-2.73935 0 -0.968523
3.01025 0 -1.15315
0.918486 0 -1.24536
-5.93184 0 -1.32781
3.30762 0 -1.38687
6.08956 0 -1.35246
1.4632 0 -1.38509
0.137053 0 -1.64907
1.28537 0 -1.53032
3.71026 0 -1.73448
4.18885 0 -0.740856
-26.0894 0 -19.0312
10.9476 0 -5.18682
-3.5612 0 -3.42794
0.238379 0 -4.39844
-1.38679 0 -3.87688
1.65665 0 -42.6595
2.97606 0 -153.234
-2.72094 0 272.544
-0.913251 0 166.9
0.437779 0 91.234
0.492172 0 -36.108
-0.492172 0 -36.108
-0.437779 0 91.234
0.913251 0 166.9
2.72094 0 272.544
-2.97606 0 -153.234
-1.65665 0 -42.6595
1.38679 0 -3.87688
-0.238379 0 -4.39844
3.5612 0 -3.42794
-10.9476 0 -5.18682
26.0894 0 -19.0312
-4.18885 0 -0.740856
-3.71026 0 -1.73448
-1.28537 0 -1.53032
-0.137053 0 -1.64907
-1.4632 0 -1.38509
-6.08956 0 -1.35246
-3.30762 0 -1.38687
5.93184 0 -1.32781
-0.918486 0 -1.24536
-3.01025 0 -1.15315
2.73935 0 -0.968523
-0.765518 0 -0.896089
-0.690597 0 -0.583279
0.906403 0 -0.130667
-0.403352 0 0.787193
0.533983 0 0.0712147
1.03057 0 3.98032
-0.0012487 0 -4.02407
-4.95794 0 6.25986
6.16166 0 5.87959
0.952255 0 28.8784
-2.77784 0 2.65448
-2.33625 0 -8.50932
-0.641709 0 -6.71814
-1.56473 0 -6.81113
0.305871 0 -6.86866
0.96355 0 -6.71127
-2.64157 0 -6.36643
2.92084 0 -5.92427
0.974547 0 -5.60083
-5.80702 0 -5.45198
2.66569 0 -5.30177
6.31103 0 -5.23398
1.45797 0 -5.10991
0.397089 0 -5.26613
1.93435 0 -5.46495
4.05509 0 -5.71751
1.80207 0 -3.63982
-28.8193 0 -46.0357
25.0259 0 -17.3268
3.81737 0 -337.044
0.576221 0 -141.323
0.627679 0 -156.693
1.4138 0 -169.143
-2.7341 0 157.829
-1.60766 0 31.7507
1.81456 0 -4.91907
3.83777 0 -154.893
0.572705 0 -157.33
-0.572705 0 -157.33
-3.83777 0 -154.893
-1.81456 0 -4.91907
1.60766 0 31.7507
2.7341 0 157.829
-1.4138 0 -169.143
-0.627679 0 -156.693
-0.576221 0 -141.323
-3.81737 0 -337.044
-25.0259 0 -17.3268
28.8193 0 -46.0357
-1.80207 0 -3.63982
-4.05509 0 -5.71751
-1.93435 0 -5.46495
-0.397089 0 -5.26613
-1.45797 0 -5.10991
-6.31103 0 -5.23398
-2.66569 0 -5.30177
5.80702 0 -5.45198
-0.974547 0 -5.60083
-2.92084 0 -5.92427
2.64157 0 -6.36643
-0.96355 0 -6.71127
-0.305871 0 -6.86866
1.56473 0 -6.81113
0.641709 0 -6.71814
2.33625 0 -8.50932
2.77784 0 2.65448
-0.952255 0 28.8784
-6.16166 0 5.87959
-13.3742 0 -10.4801
3.00395 0 6.23794
-2.63196 0 11.6152
-4.53063 0 5.05245
-1.96494 0 6.64278
-1.93058 0 6.44651
0.103792 0 6.29367
1.14582 0 6.40296
-2.34505 0 6.32081
3.09699 0 6.46188
1.33061 0 6.55058
-5.28045 0 6.49944
2.64361 0 6.4351
6.74406 0 6.47403
2.04632 0 6.35158
1.20494 0 6.38541
3.03891 0 6.27207
4.06719 0 6.87528
-3.67126 0 10.6898
1.288 0 11.2452
19.6991 0 14.9403
-7.05124 0 274.932
-10.2597 0 47.5611
-10.441 0 58.5596
-8.15524 0 182.133
-7.72042 0 -25.2753
0.576421 0 -2.44597
-2.00889 0 -127.779
-2.08932 0 91.1184
-2.25763 0 249.171
2.25763 0 249.171
2.08932 0 91.1184
2.00889 0 -127.779
-0.576421 0 -2.44597
7.72042 0 -25.2753
8.15524 0 182.133
10.441 0 58.5596
10.2597 0 47.5611
7.05124 0 274.932
-19.6991 0 14.9403
-1.288 0 11.2452
3.67126 0 10.6898
-4.06719 0 6.87528
-3.03891 0 6.27207
-1.20494 0 6.38541
-2.04632 0 6.35158
-6.74406 0 6.47403
-2.64361 0 6.4351
5.28045 0 6.49944
-1.33061 0 6.55058
-3.09699 0 6.46188
2.34505 0 6.32081
-1.14582 0 6.40296
-0.103792 0 6.29367
1.93058 0 6.44651
1.96494 0 6.64278
4.53063 0 5.05245
2.63196 0 11.6152
-3.00395 0 6.23794
13.3742 0 -10.4801
-22.6681 0 -44.9299
19.9538 0 18.0793
-1.22298 0 12.5994
-5.91839 0 8.46493
-3.11147 0 9.37209
-2.77088 0 8.36789
-0.635239 0 7.54138
0.651318 0 6.9098
-3.03637 0 6.22226
2.14021 0 5.75737
0.863006 0 5.89236