# vtk DataFile Version 3.0
SiWiRVisFile
ASCII
DATASET UNSTRUCTURED_GRID
POINTS 1600 DOUBLE
78.9934 100 75.704
80.0731 100 76.0515
81.0881 100 76.4813
82.7091 100 76.0424
83.8328 100 76.2272
84.8501 100 76.6404
85.9039 100 76.7864
86.994 100 76.9291
88.0744 100 76.9878
89.1091 100 77.091
90.1675 100 77.1657
91.3036 100 77.3017
92.3255 100 76.9312
93.4258 100 77.009
94.4532 100 76.3014
95.4912 100 75.7236
96.4718 100 75.2998
97.6797 100 75.4855
99.2145 100 74.7144
100.175 100 74.9685
103.001 100 68.828
103.082 100 70.781
103.532 100 69.7653
104.657 100 69.7847
105.799 100 69.5443
106.932 100 69.1414
108.292 100 69.301
109.533 100 69.216
110.67 100 68.8081
111.635 100 67.9181
112.857 100 67.9181
113.823 100 68.8081
114.96 100 69.216
116.201 100 69.301
117.56 100 69.1414
118.694 100 69.5443
119.835 100 69.7847
120.96 100 69.7653
121.411 100 70.781
121.492 100 68.828
124.318 100 74.9685
125.278 100 74.7144
126.813 100 75.4855
128.021 100 75.2998
129.001 100 75.7236
130.039 100 76.3014
131.067 100 77.009
132.167 100 76.9312
133.189 100 77.3017
134.325 100 77.1657
135.383 100 77.091
136.418 100 76.9878
137.498 100 76.9291
138.588 100 76.7864
139.642 100 76.6404
140.66 100 76.2272
141.783 100 76.0424
143.404 100 76.4813
144.419 100 76.0515
145.499 100 75.704
79.2487 100 76.7765
80.2469 100 77.2615
82.0287 100 76.9218
83.0776 100 77.1518
84.1275 100 77.4994
85.2069 100 77.6833
86.327 100 77.8361
87.4625 100 77.9899
88.5243 100 78.0014
89.5802 100 78.0973
90.6381 100 78.2105
91.685 100 78.2794
92.7037 100 77.9633
93.7676 100 77.9306
94.897 100 77.5413
95.9244 100 76.8228
96.9979 100 76.3551
98.8828 100 76.0662
100.141 100 76.1659
101.128 100 75.5127
102.023 100 71.1168
101.852 100 74.3722
103.612 100 73.5123
106.214 100 72.0907
105.434 100 70.5183
106.618 100 70.2936
107.761 100 70.3117
109.038 100 70.2085
110.451 100 70.0578
111.512 100 69.5683
112.98 100 69.5683
114.042 100 70.0578
115.455 100 70.2085
116.731 100 70.3117
117.875 100 70.2936
119.059 100 70.5183
118.279 100 72.0907
120.881 100 73.5123
122.641 100 74.3722
122.469 100 71.1168
123.364 100 75.5127
124.351 100 76.1659
125.61 100 76.0662
127.494 100 76.3551
128.568 100 76.8228
129.595 100 77.5413
130.725 100 77.9306
131.789 100 77.9633
132.807 100 78.2794
133.854 100 78.2105
134.912 100 78.0973
135.968 100 78.0014
137.03 100 77.9899
138.165 100 77.8361
139.286 100 77.6833
140.365 100 77.4994
141.415 100 77.1518
142.464 100 76.9218
144.245 100 77.2615
145.244 100 76.7765
79.2844 100 77.9199
80.3854 100 78.4052
81.2605 100 77.708
82.353 100 78.0918
83.4397 100 78.3513
84.5575 100 78.5097
85.6548 100 78.6742
86.769 100 78.8537
87.8366 100 79.0081
88.9214 100 79.0032
89.9784 100 79.1675
91.1888 100 79.2068
92.4352 100 79.1681
93.4472 100 78.8913
94.5729 100 78.6074
95.8789 100 78.0724
96.7499 100 77.5106
98.0739 100 76.8815
99.5236 100 77.1258
101.168 100 76.6526
102.162 100 75.3426
103.154 100 74.6016
104.619 100 75.0113
105.616 100 74.7951
106.913 100 74.3529
108.636 100 74.6905
109.564 100 75.2296
109.415 100 73.7584
110.603 100 71.8329
111.501 100 70.7872
112.991 100 70.7872
113.89 100 71.8329
115.078 100 73.7584
114.928 100 75.2296
115.857 100 74.6905
117.579 100 74.3529
118.876 100 74.7951
119.874 100 75.0113
121.339 100 74.6016
122.331 100 75.3426
123.325 100 76.6526
124.969 100 77.1258
126.419 100 76.8815
127.743 100 77.5106
128.614 100 78.0724
129.919 100 78.6074
131.045 100 78.8913
132.057 100 79.1681
133.304 100 79.2068
134.514 100 79.1675
135.571 100 79.0032
136.656 100 79.0081
137.723 100 78.8537
138.838 100 78.6742
139.935 100 78.5097
141.053 100 78.3513
142.139 100 78.0918
143.232 100 77.708
144.107 100 78.4052
145.208 100 77.9199
79.5414 100 79.0944
80.6378 100 79.4601
81.5266 100 78.8021
82.6708 100 79.2944
83.7861 100 79.338
84.9394 100 79.5032
86.0694 100 79.6782
87.1232 100 79.9092
88.1682 100 79.9762
89.2776 100 80.0139
90.2685 100 80.2728
91.2579 100 80.2724
92.2514 100 80.3564
93.2245 100 79.9486
94.2108 100 79.602
95.5069 100 79.1505
96.4875 100 78.8791
97.4517 100 78.3156
98.4641 100 77.9721
99.5442 100 78.1783
100.675 100 77.8029
102.51 100 76.3963
103.536 100 75.6282
104.535 100 76.1369
105.72 100 75.9266
106.747 100 75.7991
108.521 100 75.8081
109.7 100 76.4135
110.739 100 74.1369
111.373 100 72.6018
113.12 100 72.6018
113.754 100 74.1369
114.792 100 76.4135
115.971 100 75.8081
117.745 100 75.7991
118.772 100 75.9266
119.957 100 76.1369
120.956 100 75.6282
121.983 100 76.3963
123.817 100 77.8029
124.948 100 78.1783
126.028 100 77.9721
127.041 100 78.3156
128.005 100 78.8791
128.986 100 79.1505
130.282 100 79.602
131.268 100 79.9486
132.241 100 80.3564
133.235 100 80.2724
134.224 100 80.2728
135.215 100 80.0139
136.324 100 79.9762
137.369 100 79.9092
138.423 100 79.6782
139.553 100 79.5032
140.706 100 79.338
141.822 100 79.2944
142.966 100 78.8021
143.855 100 79.4601
144.951 100 79.0944
79.7874 100 80.1487
80.8088 100 80.5916
81.7034 100 79.9231
83.1347 100 80.3357
84.3634 100 80.4142
85.5276 100 80.6547
86.6759 100 80.8756
87.7157 100 80.9677
88.7699 100 80.9593
89.7577 100 81.2249
90.771 100 81.2459
91.774 100 81.4053
92.8919 100 81.2428
94.0482 100 80.8722
95.0016 100 80.3151
96.0525 100 80.1708
97.1235 100 79.7029
98.0991 100 79.266
99.1364 100 79.1203
100.383 100 78.8665
101.862 100 77.4168
102.912 100 77.4345
104.079 100 77.2641
105.17 100 77.0956
106.353 100 76.9481
107.54 100 76.7796
108.547 100 77.0892
109.547 100 77.468
110.655 100 75.5707
111.618 100 75.0916
112.874 100 75.0916
113.838 100 75.5707
114.945 100 77.468
115.945 100 77.0892
116.952 100 76.7796
118.14 100 76.9481
119.322 100 77.0956
120.413 100 77.2641
121.58 100 77.4345
122.631 100 77.4168
124.109 100 78.8665
125.356 100 79.1203
126.393 100 79.266
127.369 100 79.7029
128.44 100 80.1708
129.491 100 80.3151
130.444 100 80.8722
131.6 100 81.2428
132.718 100 81.4053
133.721 100 81.2459
134.735 100 81.2249
135.723 100 80.9593
136.777 100 80.9677
137.817 100 80.8756
138.965 100 80.6547
140.129 100 80.4142
141.358 100 80.3357
142.789 100 79.9231
143.684 100 80.5916
144.705 100 80.1487
79.9249 100 81.2323
80.8952 100 81.7308
81.8356 100 81.0713
82.866 100 81.6173
83.9367 100 81.4176
85.0743 100 81.5738
86.0654 100 81.781
87.0601 100 81.9428
88.1327 100 82.0657
89.1594 100 82.2385
90.2706 100 82.268
91.3215 100 82.4508
92.3547 100 82.3918
93.4601 100 82.1973
94.6199 100 81.7677
95.6366 100 81.2864
96.655 100 81.1414
97.5915 100 80.7392
98.593 100 80.236
100.085 100 79.8397
101.49 100 78.533
102.602 100 78.4035
103.683 100 78.2655
104.777 100 77.994
105.808 100 77.907
106.769 100 78.1043
107.842 100 77.9767
108.903 100 78.2308
110.804 100 77.8358
111.197 100 76.8327
113.296 100 76.8327
113.688 100 77.8358
115.59 100 78.2308
116.65 100 77.9767
117.723 100 78.1043
118.684 100 77.907
119.716 100 77.994
120.809 100 78.2655
121.891 100 78.4035
123.002 100 78.533
124.407 100 79.8397
125.899 100 80.236
126.901 100 80.7392
127.837 100 81.1414
128.856 100 81.2864
129.873 100 81.7677
131.032 100 82.1973
132.138 100 82.3918
133.171 100 82.4508
134.222 100 82.268
135.333 100 82.2385
136.36 100 82.0657
137.432 100 81.9428
138.427 100 81.781
139.418 100 81.5738
140.556 100 81.4176
141.626 100 81.6173
142.657 100 81.0713
143.597 100 81.7308
144.567 100 81.2323
79.9556 100 82.3339
80.9991 100 82.856
81.8988 100 82.1311
82.9589 100 82.7084
84.3599 100 82.3435
85.3548 100 82.6314
86.3629 100 82.8153
87.6028 100 82.9313
88.6585 100 83.2567
89.6986 100 83.2589
90.8216 100 83.3179
91.917 100 83.4104
93.0681 100 83.3474
94.081 100 83.0241
95.11 100 82.6743
96.1938 100 82.2361
97.5695 100 81.7546
98.557 100 81.3739
99.6363 100 80.8347
101.223 100 79.8619
102.158 100 79.4749
103.209 100 79.4134
104.4 100 79.0468
105.545 100 78.926
107.077 100 79.116
108.118 100 79.1809
109.238 100 79.254
109.978 100 78.57
110.688 100 79.5902
111.516 100 79.0352
112.976 100 79.0352
113.805 100 79.5902
114.514 100 78.57
115.254 100 79.254
116.374 100 79.1809
117.416 100 79.116
118.947 100 78.926
120.092 100 79.0468
121.283 100 79.4134
122.335 100 79.4749
123.269 100 79.8619
124.856 100 80.8347
125.935 100 81.3739
126.923 100 81.7546
128.299 100 82.2361
129.382 100 82.6743
130.411 100 83.0241
131.424 100 83.3474
132.575 100 83.4104
133.671 100 83.3179
134.794 100 83.2589
135.834 100 83.2567
136.89 100 82.9313
138.129 100 82.8153
139.138 100 82.6314
140.132 100 82.3435
141.533 100 82.7084
142.594 100 82.1311
143.493 100 82.856
144.537 100 82.3339
80.049 100 83.473
81.0944 100 83.9475
82.039 100 83.3678
82.9513 100 83.9092
83.8305 100 83.3067
84.8558 100 83.5953
85.875 100 83.7765
86.8876 100 83.7715
87.95 100 84.0014
89.0673 100 84.2795
90.1692 100 84.2086
91.2328 100 84.4021
92.2355 100 84.4227
93.2773 100 84.3877
94.201 100 84.0166
95.2595 100 83.7906
97.0285 100 82.787
98.4067 100 82.4451
99.426 100 81.8008
100.781 100 80.8339
101.778 100 80.7863
103.072 100 80.4797
104.175 100 80.2777
105.234 100 80.0168
106.266 100 80.0625
107.294 100 80.2203
108.521 100 80.1211
109.847 100 80.0951
110.838 100 80.747
111.728 100 80.0718
112.764 100 80.0718
113.654 100 80.747
114.646 100 80.0951
115.972 100 80.1211
117.198 100 80.2203
118.226 100 80.0625
119.258 100 80.0168
120.318 100 80.2777
121.42 100 80.4797
122.715 100 80.7863
123.712 100 80.8339
125.066 100 81.8008
126.086 100 82.4451
127.464 100 82.787
129.233 100 83.7906
130.291 100 84.0166
131.215 100 84.3877
132.257 100 84.4227
133.26 100 84.4021
134.323 100 84.2086
135.425 100 84.2795
136.542 100 84.0014
137.605 100 83.7715
138.617 100 83.7765
139.637 100 83.5953
140.662 100 83.3067
141.541 100 83.9092
142.453 100 83.3678
143.398 100 83.9475
144.443 100 83.473
80.1253 100 84.5561
81.1745 100 85.0726
82.1097 100 84.5508
83.0644 100 85.0141
83.9691 100 84.3937
85.1148 100 84.639
86.2517 100 84.7232
87.4094 100 84.935
88.584 100 85.4259
89.5738 100 85.1506
90.6142 100 85.3676
91.8347 100 85.3829
92.857 100 85.3586
93.9712 100 85.2087
94.9578 100 84.7856
95.9843 100 84.5652
96.8247 100 83.9042
97.943 100 83.3255
99.5289 100 82.8853
100.525 100 82.044
102.313 100 81.7753
[...]
POINT_DATA 1600
SCALARS mass double
LOOKUP_TABLE default
1
1
1
1
1
1
1
1
1
1
1
1
1
1
1
1
1
1
1
1
1
1
1
1
1
1
1
1
1
1
1
1
1
1
1
1
1
1
1
1
1
1
1
1
1
1
1
1
1
1
1
1
1
1
1
1
1
1
1
1
1
1
1
1
1
1
1
1
1
1
1
1
1
1
1
1
1
1
1
1
1
1
1
1
1
1
1
1
1
1
1
1
1
1
1
1
1
1
1
1
1
1
1
1
1
1
1
1
1
1
1
1
1
1
1
1
1
1
1
1
1
1
1
1
1
1
1
1
1
1
1
1
1
1
1
1
1
1
1
1
1
1
1
1
1
1
1
1
1
1
1
1
1
1
1
1
1
1
1
1
1
1
1
1
1
1
1
1
1
1
1
1
1
1
1
1
1
1
1
1
1
1
1
1
1
1
1
1
1
1
1
1
1
1
1
1
1
1
1
1
1
1
1
1
1
1
1
1
1
1
1
1
1
1
1
1
1
1
1
1
1
1
1
1
1
1
1
1
1
1
1
1
1
1
1
1
1
1
1
1
1
1
1
1
1
1
1
1
1
1
1
1
1
1
1
1
1
1
1
1
1
1
1
1
1
1
1
1
1
1
1
1
1
1
1
1
1
1
1
1
1
1
1
1
1
1
1
1
1
1
1
1
1
1
1
1
1
1
1
1
1
1
1
1
1
1
1
1
1
1
1
1
1
1
1
1
1
1
1
1
1
1
1
1
1
1
1
1
1
1
1
1
1
1
1
1
1
1
1
1
1
1
1
1
1
1
1
1
1
1
1
1
1
1
1
1
1
1
1
1
1
1
1
1
1
1
1
1
1
1
1
1
1
1
1
1
1
1
1
1
1
1
1
1
1
1
1
1
1
1
1
1
1
1
1
1
1
1
1
1
1
1
1
1
1
1
1
1
1
1
1
1
1
1
1
1
1
1
1
1
1
1
1
1
1
1
1
1
1
1
1
1
1
1
1
1
1
1
1
1
1
1
1
1
1
1
1
1
1
1
1
1
1
1
1
1
1
1
1
1
1
1
1
1
1
1
1
1
1
1
1
1
1
1
1
1
1
1
1
1
1
1
1
1
1
1
1
1
1
1
1
1
1
1
1
1
1
1
1
1
1
1
1
1
1
1
1
1
1
1
1
1
1
1
1
1
1
1
1
1
1
1
1
1
1
1
1
1
1
1
1
1
1
1
1
1
1
1
1
1
1
1
1
1
1
1
1
1
1
1
1
1
1
1
1
1
1
1
1
1
1
1
1
1
1
1
1
1
1
1
1
1
1
1
1
1
1
1
1
1
1
1
1
1
1
1
1
1
1
1
1
1
1
1
1
1
1
1
1
1
1
1
1
1
1
1
1
1
1
1
1
1
1
1
1
1
1
1
1
1
1
1
1
1
1
1
1
1
1
1
1
1
1
1
1
1
1
1
1
1
1
1
1
1
1
1
1
1
1
1
1
1
1
1
1
1
1
1
1
1
1
1
1
1
1
1
1
1
1
1
1
1
1
1
1
1
1
1
1
1
1
1
1
1
1
1
1
1
1
1
1
1
1
1
1
1
1
1
1
1
1
1
1
1
1
1
1
1
1
1
1
1
1
1
1
1
1
1
1
1
1
1
1
1
1
1
1
1
1
1
1
1
1
1
1
1
1
1
1
1
1
1
1
1
1
1
1
1
1
1
1
1
1
1
1
1
1
1
1
1
1
1
1
1
1
1
1
1
1
1
1
1
1
1
1
1
1
1
1
1
1
1
1
1
1
1
1
1
1
1
1
1
1
1
1
1
1
1
1
1
1
1
1
1
1
1
1
1
1
1
1
1
1
1
1
1
1
1
1
1
1
1
1
1
1
1
1
1
1
1
1
1
1
1
1
1
1
1
1
1
1
1
1
1
1
1
1
1
1
1
1
1
1
1
1
1
1
1
1
1
1
1
1
1
1
1
1
1
1
1
1
1
1
1
1
1
1
1
1
1
1
1
1
1
1
1
1
1
1
1
1
1
1
1
1
1
1
1
1
1
1
1
1
1
1
1
1
1
1
1
1
1
1
1
1
1
1
1
1
1
1
1
1
1
1
1
1
1
1
1
1
1
1
1
1
1
1
1
1
1
1
1
1
1
1
1
1
1
1
1
1
1
1
1
1
1
1
1
1
1
1
1
1
1
1
1
1
1
1
1
1
1
1
1
1
1
1
1
1
1
1
1
1
1
1
1
1
1
1
1
1
1
1
1
1
1
1
1
1
1
1
1
1
1
1
1
1
1
1
1
1
1
1
1
1
1
1
1
1
1
1
1
1
1
1
1
1
1
1
1
1
1
1
1
1
1
1
1
1
1
1
1
1
1
1
1
1
1
1
1
1
1
1
1
1
1
1
1
1
1
1
1
1
1
1
1
1
1
1
1
1
1
1
1
1
1
1
1
1
1
1
1
1
1
1
1
1
1
1
1
1
1
1
1
1
1
1
1
1
1
1
1
1
1
1
1
1
1
1
1
1
1
1
1
1
1
1
1
1
1
1
1
1
1
1
1
1
1
1
1
1
1
1
1
1
1
1
1
1
1
1
1
1
1
1
1
1
1
1
1
1
1
1
1
1
1
1
1
1
1
1
1
1
1
1
1
1
1
1
1
1
1
1
1
1
1
1
1
1
1
1
1
1
1
1
1
1
1
1
1
1
1
1
1
1
1
1
1
1
1
1
1
1
1
1
1
1
1
1
1
1
1
1
1
1
1
1
1
1
1
1
1
1
1
1
1
1
1
1
1
1
1
1
1
1
1
1
1
1
1
1
1
1
1
1
1
1
1
1
1
1
1
1
1
1
1
1
1
1
1
1
1
1
1
1
1
1
1
1
1
1
1
1
1
1
1
1
1
1
1
1
1
1
1
1
1
1
1
1
1
1
1
1
1
1
1
1
1
1
1
1
1
1
1
1
1
1
1
1
1
1
1
1
1
1
1
1
1
1
1
1
1
1
1
1
1
1
1
1
1
1
1
1
1
1
1
1
1
1
1
1
1
1
1
1
1
1
1
1
1
1
1
1
1
1
1
1
1
1
1
1
1
1
1
1
1
1
1
1
1
1
1
1
1
1
1
1
1
1
1
1
1
1
1
1
1
1
1
1
1
1
1
1
1
1
1
1
1
1
1
1
1
1
1
1
1
1
1
1
1
1
1
1
1
1
1
1
1
1
1
1
1
1
1
1
1
1
1
1
1
1
1
1
1
1
1
1
1
1
1
1
1
1
1
1
1
1
1
1
1
1
1
1
1
1
1
1
1
1
1
1
1
1
1
1
1
1
1
1
1
1
1
1
1
1
1
1
1
1
1
1
1
1
1
1
1
1
1
1
1
1
1
1
1
1
1
1
1
1
1
1
1
1
1
1
1
1
1
1
1
1
1
1
1
1
1
1
1
1
1
1
1
1
1
1
1
1
1
1
1
1
1
1
1
1
1
1
1
1
1
1
1
1
1
1
1
1
1
1
1
1
1
1
1
1
1
1
1
1
1
1
1
1
1
1
1
1
1
1
1
1
1
1
1
1
1
1
1
1
1
1
1
1
1
1
1
1
1
1
1
1
1
1
1
1
1
1
1
1
1
VECTORS force double
2.29323 0 -4.52771
-0.249583 0 4.05324
-43.8555 0 -3.35042
6.59256 0 8.97887
-16.4977 0 17.3319
-24.0701 0 -4.02231
19.2345 0 10.9284
-6.39122 0 10.9265
-42.342 0 2.39888
28.3565 0 -11.2757
42.4037 0 4.47955
-31.2889 0 -30.0173
2.75625 0 -5.42896
-43.3694 0 -147.764
6.33533 0 16.0935
-26.022 0 27.8565
38.703 0 4.43938
4.48166 0 4.49618
-133.766 0 -22.5153
124.485 0 43.9196
-8.68565 0 -15.2673
3.6734 0 0.268016
12.3189 0 14.6406
-12.523 0 -19.321
18.0143 0 -53.8023
-0.496338 0 22.0001
6.15089 0 9.96709
9.97705 0 1.61361
-2.33664 0 11.121
3.90934 0 11.4313
-3.90934 0 11.4313
2.33664 0 11.121
-9.97705 0 1.61361
-6.15089 0 9.96709
0.496338 0 22.0001
-18.0143 0 -53.8023
12.523 0 -19.321
-12.3189 0 14.6406
-3.6734 0 0.268016
8.68565 0 -15.2673
-124.485 0 43.9196
133.766 0 -22.5152
-4.48166 0 4.49618
-38.703 0 4.43938
26.022 0 27.8565
-6.33533 0 16.0935
43.3694 0 -147.764
-2.75625 0 -5.42896
31.2889 0 -30.0173
-42.4037 0 4.47955
-28.3565 0 -11.2757
42.342 0 2.39888
6.39122 0 10.9265
-19.2345 0 10.9284
24.0701 0 -4.02231
16.4977 0 17.3319
-6.59256 0 8.97887
43.8556 0 -3.35042
0.249583 0 4.05324
-2.29323 0 -4.52771
-6.1468 0 16.9226
-2.73636 0 -3.41324
33.8945 0 28.2939
18.2419 0 7.61478
-4.55963 0 -24.5968
35.6704 0 -36.6875
14.2251 0 -21.242
-36.1273 0 -31.8776
-22.0116 0 8.65682
2.3577 0 14.5325
-18.7184 0 5.60167
58.4101 0 17.2977
6.63507 0 11.7187
94.4197 0 36.4912
-6.93768 0 -15.63
-24.502 0 -11.4136
-10.4123 0 14.4584
8.24143 0 2.56324
-2.43736 0 -10.9078
-37.4217 0 16.0957
-2.96498 0 0.42237
-20.5496 0 -67.5523
-3.75628 0 12.0927
-0.344638 0 -3.44453
12.364 0 66.2414
-0.298831 0 -4.72042
3.95749 0 -11.4621
-11.4791 0 -3.39485
2.90203 0 -14.2633
-3.01604 0 10.3502
3.01604 0 10.3502
-2.90203 0 -14.2633
11.4791 0 -3.39485
-3.95749 0 -11.4621
0.298832 0 -4.72042
-12.364 0 66.2414
0.344638 0 -3.44453
3.75628 0 12.0927
20.5496 0 -67.5523
2.96498 0 0.42237
37.4217 0 16.0957
2.43736 0 -10.9078
-8.24143 0 2.56324
10.4123 0 14.4584
24.502 0 -11.4136
6.93768 0 -15.63
-94.4197 0 36.4912
-6.63507 0 11.7187
-58.4101 0 17.2977
18.7184 0 5.60167
-2.3577 0 14.5325
22.0116 0 8.65682
36.1273 0 -31.8776
-14.2251 0 -21.242
-35.6704 0 -36.6875
4.55963 0 -24.5968
-18.2419 0 7.61478
-33.8945 0 28.2939
2.73636 0 -3.41324
6.1468 0 16.9226
21.6943 0 5.17582
6.51913 0 -29.2464
4.74103 0 -0.0682451
8.14053 0 -18.3169
-28.5125 0 -37.4194
-38.8385 0 13.811
-0.834209 0 8.87834
-10.7407 0 -11.2123
-12.2215 0 -58.2636
-18.0438 0 1.2209
46.5093 0 -7.74141
-24.8407 0 13.1298
-60.8098 0 3.5269
-20.6244 0 16.2794
25.5229 0 -12.0138
-110.059 0 -50.0512
53.9121 0 -40.2811
-6.06555 0 -0.0811988
-6.36282 0 -42.8659
-41.1662 0 -43.7784
83.3851 0 66.0088
-14.6857 0 -9.76866
-89.0035 0 27.4026
89.414 0 -10.3327
-7.93506 0 11.137
-13.1225 0 -18.6516
18.468 0 20.5514
2.50575 0 17.8918
-4.33608 0 -18.2412
-8.53179 0 -10.9373
8.53179 0 -10.9373
4.33608 0 -18.2412
-2.50575 0 17.8918
-18.468 0 20.5514
13.1226 0 -18.6517
7.93506 0 11.137
-89.414 0 -10.3327
89.0035 0 27.4026
14.6857 0 -9.76866
-83.3851 0 66.0088
41.1662 0 -43.7784
6.36282 0 -42.8659
6.06555 0 -0.0811992
-53.9121 0 -40.2811
110.059 0 -50.0512
-25.5229 0 -12.0138
20.6244 0 16.2794
60.8098 0 3.5269
24.8407 0 13.1298
-46.5093 0 -7.74141
18.0438 0 1.2209
12.2215 0 -58.2636
10.7407 0 -11.2123
0.834209 0 8.87834
38.8385 0 13.811
28.5125 0 -37.4194
-8.14053 0 -18.3169
-4.74103 0 -0.0682451
-6.51913 0 -29.2464
-21.6943 0 5.17582
-6.81721 0 -17.1007
9.84028 0 17.1738
-5.10613 0 7.82309
-12.4992 0 -17.492
27.1824 0 60.5125
15.8503 0 26.3986
-23.9293 0 28.3031
-4.99584 0 -16.7074
79.3983 0 58.4486
-51.7066 0 -0.298651
-69.1165 0 -15.4155
32.9739 0 11.4489
81.4659 0 8.89499
-4.38586 0 39.2092
53.0388 0 37.4325
-74.0639 0 46.0973
107.773 0 16.3888
-4.86933 0 35.177
22.3244 0 -4.82269
34.4587 0 -35.3908
-9.02286 0 -30.7951
-6.3002 0 4.71254
-3.10687 0 11.369
11.8007 0 12.9311
-74.1877 0 22.2034
60.322 0 3.82492
11.2441 0 18.0046
-2.065 0 -42.4077
-3.37549 0 12.8066
10.6586 0 10.811
-10.6586 0 10.811
3.37549 0 12.8066
2.06501 0 -42.4076
-11.2441 0 18.0046
-60.322 0 3.82492
74.1877 0 22.2034
-11.8007 0 12.9311
3.10687 0 11.369
6.3002 0 4.71255
9.02286 0 -30.7951
-34.4587 0 -35.3909
-22.3244 0 -4.82269
4.86933 0 35.177
-107.773 0 16.3888
74.0639 0 46.0973
-53.0388 0 37.4325
4.38586 0 39.2092
-81.4659 0 8.89499
-32.9739 0 11.4489
69.1165 0 -15.4155
51.7066 0 -0.29865
-79.3983 0 58.4486
4.99584 0 -16.7074
23.9293 0 28.3031
-15.8503 0 26.3986
-27.1824 0 60.5125
12.4992 0 -17.492
5.10614 0 7.82309
-9.84028 0 17.1738
6.81721 0 -17.1007
-5.41525 0 9.64024
13.8868 0 -3.85725
4.58092 0 -2.46715
9.52143 0 7.06325
-7.01433 0 3.59187
30.3427 0 -63.4968
-65.0348 0 4.93371
-1.91696 0 22.58
-50.7165 0 12.3596
-32.0944 0 38.5795
6.8419 0 21.4241
86.285 0 6.30744
11.2762 0 3.46502
-40.16 0 -33.1567
1.75788 0 19.5411
39.8563 0 -8.19932
3.9244 0 56.9057
-30.0874 0 -27.5014
25.2152 0 65.455
38.1035 0 -55.7248
-0.0974303 0 58.3452
79.3185 0 -76.5212
-73.9609 0 -99.2954
48.503 0 -222.437
5.33046 0 -13.609
-48.062 0 -8.13298
22.3174 0 -1.11235
112.129 0 -44.6209
-28.9594 0 16.8542
22.2771 0 -15.3047
-22.2772 0 -15.3048
28.9595 0 16.8543
-112.129 0 -44.6209
-22.3174 0 -1.11235
48.062 0 -8.13299
-5.33046 0 -13.609
-48.503 0 -222.437
73.9609 0 -99.2954
-79.3185 0 -76.5212
0.0974224 0 58.3452
-38.1035 0 -55.7248
-25.2152 0 65.455
30.0874 0 -27.5014
-3.9244 0 56.9057
-39.8563 0 -8.19932
-1.75788 0 19.5411
40.16 0 -33.1567
-11.2762 0 3.46502
-86.285 0 6.30743
-6.8419 0 21.4241
32.0944 0 38.5795
50.7165 0 12.3596
1.91696 0 22.58
65.0348 0 4.93371
-30.3427 0 -63.4968
7.01433 0 3.59187
-9.52143 0 7.06325
-4.58092 0 -2.46715
-13.8868 0 -3.85725
5.41525 0 9.64024
-16.1246 0 5.22713
1.39896 0 -8.03346
1.26852 0 -34.7665
-7.66611 0 -25.1884
-26.9117 0 -71.4356
-106.264 0 -2.35225
-23.9917 0 -20.9126
88.5835 0 4.81023
21.0588 0 -91.6637
49.6574 0 0.088446
-22.0703 0 -2.19912
24.1743 0 -104.98
68.5984 0 -12.9126
-23.6811 0 -43.394
-25.5006 0 -23.8551
-75.5722 0 -8.37323
-19.3433 0 20.9633
80.2915 0 -123.82
21.8759 0 10.2538
-21.9176 0 72.7165
5.46244 0 14.2605
-41.5562 0 87.8249
-21.5304 0 2.36513
-52.3241 0 240.853
-62.917 0 -21.0179
132.323 0 -8.03814
3.45788 0 -0.106525
-83.4932 0 77.2987
-12.0799 0 20.4539
-2.06327 0 -28.9039
2.06327 0 -28.9039
12.0799 0 20.4539
83.4932 0 77.2986
-3.45788 0 -0.10653
-132.322 0 -8.03806
62.9168 0 -21.0178
52.3242 0 240.853
21.5304 0 2.36515
41.5562 0 87.8249
-5.46245 0 14.2605
21.9176 0 72.7165
-21.8759 0 10.2538
-80.2915 0 -123.82
19.3433 0 20.9633
75.5722 0 -8.37323
25.5006 0 -23.8551
23.6811 0 -43.394
-68.5984 0 -12.9126
-24.1743 0 -104.98
22.0703 0 -2.19912
-49.6574 0 0.0884458
-21.0588 0 -91.6637
-88.5835 0 4.81023
23.9917 0 -20.9126
106.264 0 -2.35225
26.9117 0 -71.4356
7.66611 0 -25.1884
-1.26852 0 -34.7665
-1.39896 0 -8.03346
16.1246 0 5.22713
9.36807 0 16.2163
2.74465 0 -15.2894
14.2011 0 64.2758
-32.0923 0 -6.20886
-48.8027 0 92.8811
-5.7965 0 14.7306
89.42 0 7.42329
-59.7789 0 67.1927
-4.67862 0 -66.9419
32.9835 0 -29.927
-64.8391 0 94.5187
-2.21453 0 -16.6485
-41.1024 0 -27.7737
43.9115 0 -76.547
51.7701 0 47.4665
-96.3649 0 -66.4629
-46.7814 0 106.545
-154.04 0 -135.253
14.8642 0 -131.989
-97.3795 0 -21.5158
52.5178 0 -32.3311
59.6068 0 -39.723
21.1202 0 45.7822
-10.4375 0 37.5726
-45.1884 0 32.956
16.4481 0 -80.1815
-97.2381 0 46.3128
75.0545 0 -60.439
34.9067 0 -17.44
97.8615 0 -107.829
-97.8617 0 -107.83
-34.9065 0 -17.4399
-75.0545 0 -60.4389
97.2382 0 46.3127
-16.4482 0 -80.1814
45.1884 0 32.9559
10.4375 0 37.5725
-21.1202 0 45.7822
-59.6068 0 -39.723
-52.5177 0 -32.3311
97.3795 0 -21.5158
-14.8642 0 -131.989
154.04 0 -135.253
46.7814 0 106.545
96.3649 0 -66.4629
-51.7701 0 47.4665
-43.9115 0 -76.547
41.1024 0 -27.7737
2.21453 0 -16.6485
64.8391 0 94.5187
-32.9835 0 -29.927
4.67862 0 -66.9419
59.7789 0 67.1927
-89.42 0 7.42329
5.7965 0 14.7306
48.8027 0 92.8811
32.0923 0 -6.20886
-14.2011 0 64.2758
-2.74465 0 -15.2894
-9.36807 0 16.2163
8.68706 0 -18.9609
-2.11612 0 18.9748
-28.3441 0 -24.6866
31.633 0 -2.56067
20.4855 0 -6.92114
-51.3904 0 -11.9194
-83.7058 0 -54.887
83.2845 0 25.0493
-16.607 0 40.8748
-61.1191 0 -81.0124
5.09037 0 38.7546
-92.424 0 -5.01892
97.7006 0 -20.8224
-65.154 0 27.6964
96.1703 0 65.0997
7.63291 0 -82.5287
82.438 0 42.8374
87.2712 0 -79.4998
150.721 0 230.748
-149.899 0 33.4399
146.173 0 1.18112
-18.7514 0 28.9336
-13.8567 0 -2.01643
-52.6334 0 -2.19474
10.0787 0 -6.42816
59.1883 0 -71.3022
16.0392 0 57.7668
-123.337 0 101.239
19.0459 0 -99.8558
-49.9149 0 40.5165
49.9149 0 40.5165
-19.0461 0 -99.8558
123.337 0 101.239
-16.0391 0 57.7668
-59.1883 0 -71.3022
-10.0788 0 -6.42818
52.6334 0 -2.19473
13.8567 0 -2.01643
18.7514 0 28.9336
-146.173 0 1.18112
149.899 0 33.4399
-150.721 0 230.748
-87.2712 0 -79.4998
-82.438 0 42.8374
-7.63291 0 -82.5288
-96.1703 0 65.0997
65.154 0 27.6964
-97.7006 0 -20.8224
92.424 0 -5.01891
-5.09037 0 38.7546
61.1191 0 -81.0124
16.607 0 40.8748
-83.2845 0 25.0493
83.7058 0 -54.887
51.3904 0 -11.9194
-20.4855 0 -6.92114
-31.633 0 -2.56067
28.3441 0 -24.6866
2.11612 0 18.9748
-8.68706 0 -18.9609
16.1458 0 18.7247
-35.1044 0 12.855
-43.2805 0 -16.9864
13.4083 0 8.09925
27.3572 0 9.34051
-9.81176 0 1.99638
40.478 0 80.0374
-35.2603 0 -104.394
-208.635 0 -116.748
127.826 0 -44.9758
58.9263 0 -45.3041
-132.875 0 -8.26311
91.7753 0 -6.80917
-13.691 0 16.7685
-45.1901 0 50.5106
-30.17 0 -12.2441
36.6229 0 -31.9713
-251.967 0 32.0308
98.3562 0 -135.28
-1.39306 0 -2.91222
4.55068 0 2.45853
-21.4455 0 -57.5798
-88.9853 0 23.542
-18.5018 0 -27.2343
84.9211 0 16.5294
0.0728665 0 49.9527
-73.2958 0 28.1854
5.19238 0 88.1855
-12.7754 0 -131.682
31.2206 0 36.4686
-31.2205 0 36.4685
12.7755 0 -131.681
-5.19253 0 88.1857
73.2962 0 28.1854
-0.0729387 0 49.9527
-84.921 0 16.5294
18.5015 0 -27.2343
88.9855 0 23.5421
21.4455 0 -57.5799
-4.55067 0 2.45853
1.39305 0 -2.91221
-98.3561 0 -135.28
251.967 0 32.0308
-36.6229 0 -31.9713
30.17 0 -12.2441
45.1902 0 50.5106
13.691 0 16.7685
-91.7753 0 -6.80917
132.875 0 -8.26311
-58.9263 0 -45.3041
-127.826 0 -44.9758
208.635 0 -116.748
35.2603 0 -104.394
-40.478 0 80.0374
9.81176 0 1.99637
-27.3572 0 9.34051
-13.4083 0 8.09925
43.2805 0 -16.9864
35.1044 0 12.855
-16.1458 0 18.7247
-2.28319 0 -10.6811
0.785617 0 11.7545
29.4253 0 -7.80677
5.23771 0 10.3411
-13.5855 0 2.87145
20.647 0 16.3482
-123.849 0 7.98807
144.626 0 67.7654
-1.24524 0 -21.1049
94.5648 0 202.773
23.8363 0 56.1114
-117.888 0 0.577675
118.725 0 93.7402
-12.5189 0 -56.3967
-71.0506 0 -36.3509
-7.26804 0 -98.2579
88.7133 0 66.2331
-9.48691 0 11.7549
26.2103 0 163.097
32.1532 0 -54.1551
-89.7891 0 2.35697
92.9913 0 19.7488
20.1914 0 4.77183
-18.5964 0 -115.638
-33.3676 0 -10.6982
10.6117 0 -5.10352
-14.2963 0 -2.33401
12.1803 0 -14.0829
1.64432 0 86.6318
0.300452 0 30.291
-0.300502 0 30.2911
-1.64466 0 86.6303
-12.1801 0 -14.083
14.2961 0 -2.33407
-10.6117 0 -5.10352
33.3677 0 -10.6983
18.5965 0 -115.638
-20.1914 0 4.7718
-92.9914 0 19.7488
89.7892 0 2.35696
-32.1532 0 -54.1552
-26.2104 0 163.097
9.48691 0 11.7549
-88.7133 0 66.2331
7.26803 0 -98.2579
71.0506 0 -36.3509
12.5189 0 -56.3967
-118.725 0 93.7402
117.888 0 0.577675
-23.8363 0 56.1114
-94.5648 0 202.773
1.24524 0 -21.1049
-144.626 0 67.7654
123.849 0 7.98807
-20.647 0 16.3482
13.5855 0 2.87145
-5.23771 0 10.3411
-29.4253 0 -7.80677
-0.785616 0 11.7545
2.28319 0 -10.6811
-130.579 0 25.5008
145.447 0 -17.882
-22.8693 0 -12.6693
-66.0693 0 -90.8549
-56.9555 0 -31.622
29.7069 0 -3.77808
-9.71815 0 13.8774
-59.0682 0 15.3057
-35.3586 0 67.0533
18.5043 0 -51.6605
27.1682 0 -172.087
17.5075 0 -15.8993
2.56262 0 -99.4183
-12.4752 0 30.7796
16.8769 0 19.5589
81.2255 0 93.2262
-60.2441 0 -124.592
-209.113 0 -58.5501
-6.03944 0 -18.1136
-13.0263 0 -31.7136
-159.314 0 -48.863
162.492 0 -66.8802
-29.0255 0 -66.0862
1.14866 0 28.7655
34.4471 0 87.3403
14.6772 0 24.7782
-51.327 0 -77.1799
-59.6259 0 0.982564
38.6689 0 34.5269
23.6898 0 -55.3928
-23.6901 0 -55.3929
-38.669 0 34.527
59.6264 0 0.982668
51.327 0 -77.1797
-14.6772 0 24.7782
-34.4471 0 87.3403
-1.14865 0 28.7655
29.0255 0 -66.0861
-162.492 0 -66.8802
159.314 0 -48.8631
13.0263 0 -31.7136
6.03945 0 -18.1137
209.113 0 -58.5501
60.244 0 -124.592
-81.2255 0 93.2262
-16.8769 0 19.5589
12.4752 0 30.7796
-2.56262 0 -99.4183
-17.5075 0 -15.8993
-27.1682 0 -172.087
-18.5043 0 -51.6605
35.3586 0 67.0533
59.0682 0 15.3057
9.71814 0 13.8774
-29.7069 0 -3.77808
56.9555 0 -31.622
66.0693 0 -90.8549
22.8693 0 -12.6693
-145.447 0 -17.882
130.579 0 25.5008
5.63179 0 11.2623
20.0193 0 -0.577614
-50.4632 0 -60.8367
40.8331 0 12.5128
44.3334 0 61.6997
19.8586 0 55.2381
29.1545 0 3.21464
-3.24587 0 6.06621
-10.705 0 -70.1729
35.3469 0 -112.971
-92.317 0 186.125
60.9899 0 -10.1652
-36.8496 0 40.0988
59.9261 0 54.4867
-180.369 0 -207.783
3.66265 0 3.93495
48.7915 0 -53.3713
107.595 0 141.41
192.499 0 114.678
-25.9934 0 -199.699
25.7231 0 -46.3002
-52.9107 0 75.354
38.1956 0 38.1923
33.0417 0 27.217
-13.7259 0 12.1301
1.22385 0 -11.6112
-23.523 0 -43.5286
-42.8128 0 28.9781
192.735 0 -43.0786
-27.0989 0 -73.5727
27.0988 0 -73.5736
-192.735 0 -43.0773
42.8138 0 28.9776
23.5229 0 -43.5285
-1.22384 0 -11.6113
13.7259 0 12.1301
-33.0417 0 27.217
-38.1956 0 38.1923
52.9107 0 75.3541
-25.7231 0 -46.3002
25.9933 0 -199.699
-192.499 0 114.678
-107.595 0 141.41
-48.7915 0 -53.3713
-3.66265 0 3.93496
180.369 0 -207.783
-59.9261 0 54.4867
36.8496 0 40.0988
-60.9899 0 -10.1652
92.317 0 186.125
-35.3469 0 -112.971
10.705 0 -70.1729
3.24587 0 6.06621
-29.1545 0 3.21464
-19.8586 0 55.2381
-44.3333 0 61.6997
-40.8331 0 12.5128
50.4632 0 -60.8367
-20.0193 0 -0.577614
-5.63179 0 11.2623
-0.105004 0 3.04055
20.3583 0 -4.4867
-44.8182 0 68.425
24.9804 0 -0.243602
51.7061 0 -3.56886
3.96008 0 36.9089
-4.41561 0 -66.7103
15.1136 0 -66.6842
-15.0378 0 0.635626
-28.0726 0 128.559
7.39518 0 -44.5417
-62.4631 0 36.673
45.9994 0 9.932
-158.575 0 -16.7878
34.2434 0 1.37062
190.28 0 260.518
48.717 0 -4.87239
-32.3045 0 -20.1924
-40.2802 0 -36.3888
-82.3022 0 56.3339
25.1699 0 151.379
-118.878 0 -36.0351
106.295 0 -52.6178
-12.5516 0 29.3849
-34.0683 0 -20.9323
43.1494 0 14.399
-37.3311 0 -50.5164
-151.537 0 55.5466
-9.24165 0 -43.2029
-8.5067 0 145.181
8.5064 0 145.182
9.24208 0 -43.2035
151.536 0 55.546
37.3311 0 -50.5164
-43.1493 0 14.399
34.0683 0 -20.9323
12.5516 0 29.3849
-106.294 0 -52.6178
118.877 0 -36.0351
-25.1699 0 151.379
82.3022 0 56.3339
40.2802 0 -36.3888
32.3045 0 -20.1924
-48.717 0 -4.87239
-190.28 0 260.518
-34.2435 0 1.37062
158.575 0 -16.7878
-45.9994 0 9.932
62.4631 0 36.673
-7.39518 0 -44.5417
28.0726 0 128.559
15.0378 0 0.635624
-15.1136 0 -66.6842
4.41561 0 -66.7103
-3.96008 0 36.9089
-51.7061 0 -3.56886
-24.9804 0 -0.243602
44.8182 0 68.425
-20.3583 0 -4.4867
0.105004 0 3.04055
-18.0917 0 -18.2061
-56.552 0 -42.1076
35.4193 0 26.2074
-70.974 0 2.23273
0.545497 0 -56.0944
-12.7865 0 46.5303
-19.0804 0 85.4127
17.1164 0 26.269
-11.0266 0 19.0202
-10.3062 0 52.6231
-63.9037 0 -47.0284
36.8507 0 45.3088
28.2091 0 -28.9091
-17.0226 0 -54.9854
69.032 0 -24.4314
-82.0649 0 -25.4409
82.986 0 38.8483
-145.204 0 7.00223
22.5452 0 -28.6523
101.826 0 -22.2993
123.449 0 132.74
176.263 0 -302.414
-26.4727 0 41.912
-87.4072 0 -30.9998
30.8793 0 -30.2032
19.4747 0 34.6587
116.948 0 -204.623
-135.815 0 26.4501
83.0798 0 -57.2976
-33.1443 0 -11.7096
33.1435 0 -11.7085
-83.0792 0 -57.2984
135.815 0 26.4499
-116.948 0 -204.623
-19.4746 0 34.6588
-30.8793 0 -30.2032
87.4071 0 -30.9996
26.4727 0 41.912
-176.263 0 -302.414
-123.449 0 132.74
-101.826 0 -22.2993
-22.5452 0 -28.6523
145.204 0 7.00222
-82.986 0 38.8483
82.0649 0 -25.4409
-69.032 0 -24.4314
17.0226 0 -54.9854
-28.2091 0 -28.9091
-36.8507 0 45.3088
63.9037 0 -47.0284
10.3062 0 52.6231
11.0266 0 19.0202
-17.1164 0 26.2691
19.0804 0 85.4127
12.7865 0 46.5303
-0.545497 0 -56.0944
70.974 0 2.23273
-35.4193 0 26.2074
56.552 0 -42.1076
18.0917 0 -18.2061
-30.9798 0 -40.6928
21.5602 0 25.8569
-140.777 0 73.1095
144.471 0 -123.135
-104.285 0 36.1574
158.362 0 42.4534
-10.6348 0 6.16514
-57.5666 0 -15.9012
35.2724 0 -48.83
15.3584 0 1.69956
-85.3873 0 11.6729
81.8622 0 -3.91816
-17.4186 0 35.2406
-31.7174 0 55.4816
1.90826 0 -35.5107
11.9326 0 47.2392
-41.3568 0 -123.464
-41.0318 0 -28.2144
42.3592 0 71.368
-35.025 0 -84.3282
-234.419 0 132.444
91.4437 0 -7.25407
56.924 0 -26.4995
42.3869 0 -30.1528
62.9996 0 51.2351
-112.901 0 160.535
-89.814 0 -40.308
-20.4245 0 60.7365
196.573 0 118.865
82.1869 0 25.1317
-82.1868 0 25.1308
-196.573 0 118.866
20.4246 0 60.7364
89.814 0 -40.3081
112.901 0 160.535
-62.9997 0 51.235
-42.3869 0 -30.1528
-56.9241 0 -26.4994
-91.4436 0 -7.25405
234.419 0 132.444
35.025 0 -84.3282
-42.3592 0 71.368
41.0318 0 -28.2144
41.3568 0 -123.464
-11.9326 0 47.2392
-1.90826 0 -35.5107
31.7174 0 55.4816
17.4186 0 35.2406