# vtk DataFile Version 3.0
SiWiRVisFile
ASCII
DATASET UNSTRUCTURED_GRID
POINTS 1600 DOUBLE
79.2467 100 75.9585
80.2246 100 76.5202
81.3045 100 76.6661
82.6979 100 76.3554
83.7394 100 76.7645
84.8381 100 76.7667
85.9226 100 76.8073
87.0235 100 76.8448
88.1026 100 76.8642
89.1989 100 76.8995
90.332 100 76.9272
91.4793 100 76.9638
92.5177 100 76.8648
93.6135 100 76.7704
94.7644 100 76.809
95.8708 100 76.8043
96.9355 100 76.8385
98.012 100 76.8296
99.2328 100 76.6166
100.239 100 75.9601
102.014 100 72.2141
102.908 100 73.6611
103.774 100 72.9285
104.889 100 72.8808
106.092 100 72.9757
107.254 100 73.0577
108.502 100 72.8449
109.577 100 72.6553
110.654 100 72.6367
111.717 100 72.4526
112.775 100 72.4526
113.838 100 72.6367
114.916 100 72.6553
115.99 100 72.8449
117.239 100 73.0577
118.4 100 72.9757
119.603 100 72.8808
120.718 100 72.9285
121.584 100 73.6611
122.478 100 72.2141
124.253 100 75.9601
125.26 100 76.6166
126.48 100 76.8296
127.557 100 76.8385
128.622 100 76.8043
129.728 100 76.809
130.879 100 76.7704
131.975 100 76.8648
133.013 100 76.9638
134.16 100 76.9272
135.293 100 76.8995
136.39 100 76.8642
137.469 100 76.8448
138.57 100 76.8073
139.654 100 76.7667
140.753 100 76.7645
141.794 100 76.3554
143.188 100 76.6661
144.268 100 76.5202
145.246 100 75.9585
79.3642 100 77.1372
80.3702 100 77.5704
82.1807 100 77.3344
83.2104 100 77.6732
84.2661 100 77.7367
85.3528 100 77.7518
86.4426 100 77.7795
87.5282 100 77.8074
88.6688 100 77.8813
89.7298 100 77.895
90.8855 100 77.9006
92.0539 100 77.9208
93.1813 100 77.8166
94.2807 100 77.8011
95.3999 100 77.8062
96.4952 100 77.8395
97.6314 100 77.8513
98.8015 100 77.6295
100.053 100 77.319
101.215 100 76.9558
102.212 100 74.7154
102.153 100 76.5195
103.581 100 75.3415
104.571 100 75.2655
105.577 100 74.5046
106.663 100 73.9282
107.839 100 73.9445
109.056 100 73.7981
110.404 100 73.8267
111.628 100 73.6069
112.864 100 73.6069
114.088 100 73.8267
115.436 100 73.7981
116.653 100 73.9445
117.829 100 73.9282
118.915 100 74.5046
119.922 100 75.2655
120.911 100 75.3415
122.34 100 76.5195
122.281 100 74.7154
123.277 100 76.9558
124.439 100 77.319
125.691 100 77.6295
126.861 100 77.8513
127.997 100 77.8395
129.092 100 77.8062
130.212 100 77.8011
131.311 100 77.8166
132.439 100 77.9208
133.607 100 77.9006
134.763 100 77.895
135.824 100 77.8813
136.964 100 77.8074
138.05 100 77.7795
139.14 100 77.7518
140.226 100 77.7367
141.282 100 77.6732
142.312 100 77.3344
144.122 100 77.5704
145.128 100 77.1372
79.3545 100 78.2226
80.4149 100 78.6718
81.395 100 78.0832
82.5001 100 78.4983
83.6323 100 78.6675
84.7736 100 78.6977
85.8677 100 78.7173
86.9639 100 78.7634
88.0377 100 78.8306
89.1236 100 78.8913
90.2899 100 78.9655
91.4733 100 78.9049
92.6544 100 78.7874
93.9538 100 78.8085
95.0748 100 78.8726
96.1244 100 78.894
97.1999 100 78.8182
98.2427 100 78.7175
99.4093 100 78.4868
100.723 100 78.1354
101.865 100 77.7394
103.198 100 76.9643
104.267 100 77.3516
105.589 100 77.1471
106.809 100 76.9542
107.901 100 77.0531
109.212 100 77.2428
109.786 100 76.0991
110.791 100 75.5039
111.682 100 74.8019
112.811 100 74.8019
113.701 100 75.5039
114.706 100 76.0991
115.28 100 77.2428
116.591 100 77.0531
117.683 100 76.9542
118.903 100 77.1471
120.226 100 77.3516
121.294 100 76.9643
122.627 100 77.7394
123.769 100 78.1354
125.083 100 78.4868
126.25 100 78.7175
127.293 100 78.8182
128.368 100 78.894
129.418 100 78.8726
130.539 100 78.8085
131.838 100 78.7874
133.019 100 78.9049
134.202 100 78.9655
135.369 100 78.8913
136.455 100 78.8306
137.528 100 78.7634
138.625 100 78.7173
139.719 100 78.6977
140.86 100 78.6675
141.992 100 78.4983
143.097 100 78.0832
144.077 100 78.6718
145.138 100 78.2226
79.5785 100 79.372
80.674 100 79.6926
81.6863 100 79.1947
82.9203 100 79.5967
84.1151 100 79.6185
85.1838 100 79.7197
86.2575 100 79.7493
87.3236 100 79.7792
88.377 100 79.8671
89.4401 100 79.9285
90.5391 100 79.9731
91.5967 100 79.9505
92.6536 100 79.9079
93.6682 100 79.8507
94.6782 100 79.8769
95.7379 100 79.8553
96.8154 100 79.8636
97.8778 100 79.8338
98.8367 100 79.5573
99.8899 100 79.3618
100.888 100 79.1998
102.428 100 78.7183
103.566 100 78.2876
104.68 100 78.4494
105.826 100 78.3919
106.942 100 77.9998
108.003 100 78.467
109.163 100 78.2528
110.179 100 77.7442
111.3 100 76.677
113.192 100 76.677
114.314 100 77.7442
115.329 100 78.2528
116.49 100 78.467
117.55 100 77.9998
118.667 100 78.3919
119.812 100 78.4494
120.927 100 78.2876
122.064 100 78.7183
123.605 100 79.1998
124.603 100 79.3618
125.656 100 79.5573
126.615 100 79.8338
127.677 100 79.8636
128.754 100 79.8553
129.814 100 79.8769
130.824 100 79.8507
131.839 100 79.9079
132.896 100 79.9505
133.953 100 79.9731
135.052 100 79.9285
136.115 100 79.8671
137.169 100 79.7792
138.235 100 79.7493
139.309 100 79.7197
140.377 100 79.6185
141.572 100 79.5967
142.806 100 79.1947
143.818 100 79.6926
144.914 100 79.372
79.8965 100 80.4413
80.9717 100 80.8133
81.9264 100 80.2824
82.8984 100 80.8438
84.1333 100 80.7114
85.3007 100 80.8777
86.4926 100 80.893
87.7029 100 80.9382
88.8552 100 80.8717
89.9464 100 80.9415
91.0069 100 80.9595
92.0932 100 80.9093
93.1506 100 80.8301
94.1765 100 80.7973
95.273 100 80.852
96.3697 100 80.8556
97.4246 100 80.8591
98.4993 100 80.7475
99.5297 100 80.2871
100.588 100 80.2241
101.984 100 79.6488
102.948 100 79.673
103.822 100 79.229
105.113 100 79.4694
106.172 100 79.4917
107.192 100 79.2652
108.303 100 79.5161
109.801 100 79.2373
110.792 100 78.8886
111.609 100 77.6456
112.884 100 77.6456
113.701 100 78.8886
114.692 100 79.2373
116.189 100 79.5161
117.3 100 79.2652
118.321 100 79.4917
119.379 100 79.4694
120.671 100 79.229
121.545 100 79.673
122.508 100 79.6488
123.904 100 80.2241
124.963 100 80.2871
125.993 100 80.7475
127.068 100 80.8591
128.123 100 80.8556
129.219 100 80.852
130.316 100 80.7973
131.342 100 80.8301
132.399 100 80.9093
133.486 100 80.9595
134.546 100 80.9415
135.637 100 80.8717
136.79 100 80.9382
138 100 80.893
139.192 100 80.8777
140.359 100 80.7114
141.594 100 80.8438
142.566 100 80.2824
143.521 100 80.8133
144.596 100 80.4413
79.9405 100 81.4728
80.9768 100 81.9367
81.9044 100 81.3902
82.7609 100 81.9769
83.7458 100 81.7066
84.7492 100 81.9844
85.8425 100 81.9066
86.9091 100 81.8932
88.0309 100 81.9606
89.106 100 81.9649
90.2369 100 81.9526
91.4183 100 81.9841
92.5484 100 81.9126
93.6488 100 81.8826
94.7453 100 81.8752
95.8265 100 81.8769
96.8789 100 81.8823
97.9558 100 81.8649
99.0415 100 81.6726
100.021 100 81.2238
101.178 100 81.1376
102.441 100 80.707
103.666 100 80.4699
104.692 100 80.4576
106.009 100 80.6613
107.052 100 80.4416
108.161 100 80.5739
109.337 100 80.2502
110.345 100 80.3292
111.502 100 79.8224
112.99 100 79.8224
114.147 100 80.3292
115.156 100 80.2502
116.331 100 80.5739
117.441 100 80.4416
118.484 100 80.6613
119.801 100 80.4576
120.826 100 80.4699
122.051 100 80.707
123.315 100 81.1376
124.472 100 81.2238
125.451 100 81.6726
126.537 100 81.8649
127.613 100 81.8823
128.666 100 81.8769
129.747 100 81.8752
130.844 100 81.8826
131.944 100 81.9126
133.074 100 81.9841
134.256 100 81.9526
135.386 100 81.9649
136.462 100 81.9606
137.583 100 81.8932
138.65 100 81.9066
139.743 100 81.9844
140.747 100 81.7066
141.732 100 81.9769
142.588 100 81.3902
143.516 100 81.9367
144.552 100 81.4728
79.9676 100 82.5494
80.9324 100 83.06
81.8854 100 82.5641
82.9163 100 83.0324
84.0347 100 82.8256
85.1698 100 83.0357
86.298 100 82.9384
87.4087 100 82.9221
88.5659 100 82.9154
89.6993 100 82.8481
90.8507 100 82.8693
92.004 100 82.8613
93.1186 100 82.8004
94.2553 100 82.8088
95.3467 100 82.8279
96.4449 100 82.8295
97.5592 100 82.803
98.6171 100 82.6369
99.6352 100 82.4166
100.68 100 81.9711
102.018 100 81.7574
103.159 100 81.5885
104.169 100 81.4659
105.346 100 81.4514
106.422 100 81.6141
107.404 100 81.4305
108.73 100 81.3068
109.88 100 81.3282
110.891 100 81.5352
111.703 100 80.9177
112.789 100 80.9177
113.602 100 81.5352
114.612 100 81.3282
115.762 100 81.3068
117.089 100 81.4305
118.07 100 81.6141
119.147 100 81.4514
120.324 100 81.4659
121.333 100 81.5885
122.475 100 81.7574
123.813 100 81.9711
124.857 100 82.4166
125.875 100 82.6369
126.933 100 82.803
128.047 100 82.8295
129.146 100 82.8279
130.237 100 82.8088
131.374 100 82.8004
132.488 100 82.8613
133.642 100 82.8693
134.793 100 82.8481
135.926 100 82.9154
137.084 100 82.9221
138.194 100 82.9384
139.323 100 83.0357
140.458 100 82.8256
141.576 100 83.0324
142.607 100 82.5641
143.56 100 83.06
144.525 100 82.5494
80.0205 100 83.685
80.9678 100 84.151
81.914 100 83.6059
82.8866 100 84.1383
83.9113 100 83.9184
84.9826 100 84.1375
86.0449 100 84.0963
87.1137 100 84.0913
88.2395 100 84.0256
89.3799 100 83.9565
90.5106 100 83.9485
91.6312 100 83.9532
92.7549 100 83.9304
93.8815 100 83.9183
94.9939 100 83.9001
96.0933 100 83.9057
97.181 100 83.9481
98.1735 100 83.6295
99.3142 100 83.4545
100.487 100 83.0648
101.467 100 82.6334
102.573 100 82.6452
103.644 100 82.4697
104.774 100 82.3216
105.931 100 82.5294
106.996 100 82.4155
108.096 100 82.2639
109.325 100 82.1517
110.456 100 82.4288
111.739 100 82.2776
112.753 100 82.2776
114.037 100 82.4288
115.167 100 82.1517
116.396 100 82.2639
117.496 100 82.4155
118.562 100 82.5294
119.718 100 82.3216
120.849 100 82.4697
121.919 100 82.6452
123.025 100 82.6334
124.006 100 83.0648
125.178 100 83.4545
126.319 100 83.6295
127.311 100 83.9481
128.399 100 83.9057
129.499 100 83.9001
130.611 100 83.9183
131.738 100 83.9304
132.861 100 83.9532
133.982 100 83.9485
135.113 100 83.9565
136.253 100 84.0256
137.379 100 84.0913
138.447 100 84.0963
139.51 100 84.1375
140.581 100 83.9184
141.606 100 84.1383
142.578 100 83.6059
143.525 100 84.151
144.472 100 83.685
79.9257 100 84.8178
81.0152 100 85.2667
81.9249 100 84.7167
82.8758 100 85.2228
83.9764 100 85.1329
85.0054 100 85.2625
86.1531 100 85.2414
87.2882 100 85.2113
88.4051 100 85.1319
89.5224 100 85.1159
90.6439 100 85.1103
91.7634 100 85.1132
92.8924 100 85.102
94.0222 100 85.0997
95.139 100 85.0942
96.2595 100 85.1142
97.3953 100 85.163
98.4801 100 84.731
99.7545 100 84.4589
[...]
POINT_DATA 1600
SCALARS mass double
LOOKUP_TABLE default
1
1
1
1
1
1
1
1
1
1
1
1
1
1
1
1
1
1
1
1
1
1
1
1
1
1
1
1
1
1
1
1
1
1
1
1
1
1
1
1
1
1
1
1
1
1
1
1
1
1
1
1
1
1
1
1
1
1
1
1
1
1
1
1
1
1
1
1
1
1
1
1
1
1
1
1
1
1
1
1
1
1
1
1
1
1
1
1
1
1
1
1
1
1
1
1
1
1
1
1
1
1
1
1
1
1
1
1
1
1
1
1
1
1
1
1
1
1
1
1
1
1
1
1
1
1
1
1
1
1
1
1
1
1
1
1
1
1
1
1
1
1
1
1
1
1
1
1
1
1
1
1
1
1
1
1
1
1
1
1
1
1
1
1
1
1
1
1
1
1
1
1
1
1
1
1
1
1
1
1
1
1
1
1
1
1
1
1
1
1
1
1
1
1
1
1
1
1
1
1
1
1
1
1
1
1
1
1
1
1
1
1
1
1
1
1
1
1
1
1
1
1
1
1
1
1
1
1
1
1
1
1
1
1
1
1
1
1
1
1
1
1
1
1
1
1
1
1
1
1
1
1
1
1
1
1
1
1
1
1
1
1
1
1
1
1
1
1
1
1
1
1
1
1
1
1
1
1
1
1
1
1
1
1
1
1
1
1
1
1
1
1
1
1
1
1
1
1
1
1
1
1
1
1
1
1
1
1
1
1
1
1
1
1
1
1
1
1
1
1
1
1
1
1
1
1
1
1
1
1
1
1
1
1
1
1
1
1
1
1
1
1
1
1
1
1
1
1
1
1
1
1
1
1
1
1
1
1
1
1
1
1
1
1
1
1
1
1
1
1
1
1
1
1
1
1
1
1
1
1
1
1
1
1
1
1
1
1
1
1
1
1
1
1
1
1
1
1
1
1
1
1
1
1
1
1
1
1
1
1
1
1
1
1
1
1
1
1
1
1
1
1
1
1
1
1
1
1
1
1
1
1
1
1
1
1
1
1
1
1
1
1
1
1
1
1
1
1
1
1
1
1
1
1
1
1
1
1
1
1
1
1
1
1
1
1
1
1
1
1
1
1
1
1
1
1
1
1
1
1
1
1
1
1
1
1
1
1
1
1
1
1
1
1
1
1
1
1
1
1
1
1
1
1
1
1
1
1
1
1
1
1
1
1
1
1
1
1
1
1
1
1
1
1
1
1
1
1
1
1
1
1
1
1
1
1
1
1
1
1
1
1
1
1
1
1
1
1
1
1
1
1
1
1
1
1
1
1
1
1
1
1
1
1
1
1
1
1
1
1
1
1
1
1
1
1
1
1
1
1
1
1
1
1
1
1
1
1
1
1
1
1
1
1
1
1
1
1
1
1
1
1
1
1
1
1
1
1
1
1
1
1
1
1
1
1
1
1
1
1
1
1
1
1
1
1
1
1
1
1
1
1
1
1
1
1
1
1
1
1
1
1
1
1
1
1
1
1
1
1
1
1
1
1
1
1
1
1
1
1
1
1
1
1
1
1
1
1
1
1
1
1
1
1
1
1
1
1
1
1
1
1
1
1
1
1
1
1
1
1
1
1
1
1
1
1
1
1
1
1
1
1
1
1
1
1
1
1
1
1
1
1
1
1
1
1
1
1
1
1
1
1
1
1
1
1
1
1
1
1
1
1
1
1
1
1
1
1
1
1
1
1
1
1
1
1
1
1
1
1
1
1
1
1
1
1
1
1
1
1
1
1
1
1
1
1
1
1
1
1
1
1
1
1
1
1
1
1
1
1
1
1
1
1
1
1
1
1
1
1
1
1
1
1
1
1
1
1
1
1
1
1
1
1
1
1
1
1
1
1
1
1
1
1
1
1
1
1
1
1
1
1
1
1
1
1
1
1
1
1
1
1
1
1
1
1
1
1
1
1
1
1
1
1
1
1
1
1
1
1
1
1
1
1
1
1
1
1
1
1
1
1
1
1
1
1
1
1
1
1
1
1
1
1
1
1
1
1
1
1
1
1
1
1
1
1
1
1
1
1
1
1
1
1
1
1
1
1
1
1
1
1
1
1
1
1
1
1
1
1
1
1
1
1
1
1
1
1
1
1
1
1
1
1
1
1
1
1
1
1
1
1
1
1
1
1
1
1
1
1
1
1
1
1
1
1
1
1
1
1
1
1
1
1
1
1
1
1
1
1
1
1
1
1
1
1
1
1
1
1
1
1
1
1
1
1
1
1
1
1
1
1
1
1
1
1
1
1
1
1
1
1
1
1
1
1
1
1
1
1
1
1
1
1
1
1
1
1
1
1
1
1
1
1
1
1
1
1
1
1
1
1
1
1
1
1
1
1
1
1
1
1
1
1
1
1
1
1
1
1
1
1
1
1
1
1
1
1
1
1
1
1
1
1
1
1
1
1
1
1
1
1
1
1
1
1
1
1
1
1
1
1
1
1
1
1
1
1
1
1
1
1
1
1
1
1
1
1
1
1
1
1
1
1
1
1
1
1
1
1
1
1
1
1
1
1
1
1
1
1
1
1
1
1
1
1
1
1
1
1
1
1
1
1
1
1
1
1
1
1
1
1
1
1
1
1
1
1
1
1
1
1
1
1
1
1
1
1
1
1
1
1
1
1
1
1
1
1
1
1
1
1
1
1
1
1
1
1
1
1
1
1
1
1
1
1
1
1
1
1
1
1
1
1
1
1
1
1
1
1
1
1
1
1
1
1
1
1
1
1
1
1
1
1
1
1
1
1
1
1
1
1
1
1
1
1
1
1
1
1
1
1
1
1
1
1
1
1
1
1
1
1
1
1
1
1
1
1
1
1
1
1
1
1
1
1
1
1
1
1
1
1
1
1
1
1
1
1
1
1
1
1
1
1
1
1
1
1
1
1
1
1
1
1
1
1
1
1
1
1
1
1
1
1
1
1
1
1
1
1
1
1
1
1
1
1
1
1
1
1
1
1
1
1
1
1
1
1
1
1
1
1
1
1
1
1
1
1
1
1
1
1
1
1
1
1
1
1
1
1
1
1
1
1
1
1
1
1
1
1
1
1
1
1
1
1
1
1
1
1
1
1
1
1
1
1
1
1
1
1
1
1
1
1
1
1
1
1
1
1
1
1
1
1
1
1
1
1
1
1
1
1
1
1
1
1
1
1
1
1
1
1
1
1
1
1
1
1
1
1
1
1
1
1
1
1
1
1
1
1
1
1
1
1
1
1
1
1
1
1
1
1
1
1
1
1
1
1
1
1
1
1
1
1
1
1
1
1
1
1
1
1
1
1
1
1
1
1
1
1
1
1
1
1
1
1
1
1
1
1
1
1
1
1
1
1
1
1
1
1
1
1
1
1
1
1
1
1
1
1
1
1
1
1
1
1
1
1
1
1
1
1
1
1
1
1
1
1
1
1
1
1
1
1
1
1
1
1
1
1
1
1
1
1
1
1
1
1
1
1
1
1
1
1
1
1
1
1
1
1
1
1
1
1
1
1
1
1
1
1
1
1
1
1
1
1
1
1
1
1
1
1
1
1
1
1
1
1
1
1
1
1
1
1
1
1
1
1
1
1
1
1
1
1
1
1
1
1
1
1
1
1
1
1
1
1
1
1
1
1
1
1
1
1
1
1
1
1
1
1
VECTORS force double
3.33461 0 12.1746
9.98343 0 -51.5021
6.11552 0 12.601
-2.64979 0 5.95231
8.5133 0 -35.7222
-8.99945 0 0.462483
7.98077 0 -8.08901
-14.1719 0 -16.0967
16.1538 0 4.90503
13.3937 0 2.63464
0.11603 0 5.49133
-52.9967 0 2.073
42.7105 0 11.0946
19.3439 0 13.9721
-3.88532 0 5.04035
-15.2966 0 6.62394
18.4419 0 3.74501
36.0001 0 -10.4527
-13.1192 0 -20.0539
-3.73608 0 22.426
2.60016 0 2.76077
-4.17008 0 7.32746
-5.15142 0 2.40143
14.5006 0 3.61731
-5.58744 0 0.402599
9.89533 0 -60.6762
-32.7275 0 8.56234
-8.34104 0 15.6288
4.83554 0 21.6031
-14.7161 0 7.8868
14.7161 0 7.8868
-4.83554 0 21.6031
8.34104 0 15.6288
32.7275 0 8.56234
-9.89533 0 -60.6762
5.58744 0 0.402599
-14.5006 0 3.61731
5.15142 0 2.40143
4.17008 0 7.32746
-2.60016 0 2.76077
3.73608 0 22.426
13.1192 0 -20.0539
-36.0001 0 -10.4527
-18.4419 0 3.74501
15.2966 0 6.62394
3.88532 0 5.04035
-19.3439 0 13.9721
-42.7105 0 11.0946
52.9967 0 2.073
-0.11603 0 5.49133
-13.3937 0 2.63464
-16.1538 0 4.90503
14.1719 0 -16.0967
-7.98077 0 -8.08901
8.99945 0 0.462483
-8.5133 0 -35.7222
2.64979 0 5.95231
-6.11552 0 12.601
-9.98343 0 -51.5021
-3.33461 0 12.1746
-35.3407 0 -7.78022
18.1263 0 30.9212
3.59076 0 5.67661
-40.5227 0 5.91333
16.882 0 -3.77632
-2.84064 0 -2.7126
-0.420007 0 4.99043
26.9182 0 21.0763
-46.0875 0 -5.36629
40.5931 0 13.9874
-1.84995 0 22.6015
-26.2431 0 -31.0017
-4.00783 0 -3.52364
14.2001 0 -26.9758
-9.84323 0 4.46165
9.88269 0 10.1952
-9.23901 0 -55.1435
-32.0089 0 -15.01
-11.854 0 -15.2083
-130.329 0 -30.3015
11.7845 0 -5.31763
55.9097 0 -14.2927
-144.806 0 10.6322
146.828 0 -17.0893
1.3612 0 -4.23704
-21.7599 0 41.6292
24.4777 0 13.3855
6.30024 0 -3.8827
4.14036 0 -15.9557
-0.917784 0 -0.767555
0.917784 0 -0.767555
-4.14036 0 -15.9557
-6.30024 0 -3.8827
-24.4777 0 13.3855
21.7599 0 41.6292
-1.3612 0 -4.23704
-146.828 0 -17.0893
144.806 0 10.6322
-55.9097 0 -14.2927
-11.7845 0 -5.31763
130.329 0 -30.3015
11.854 0 -15.2083
32.0089 0 -15.01
9.23901 0 -55.1435
-9.88269 0 10.1952
9.84323 0 4.46165
-14.2001 0 -26.9758
4.00783 0 -3.52364
26.2431 0 -31.0017
1.84995 0 22.6015
-40.5931 0 13.9874
46.0875 0 -5.36629
-26.9182 0 21.0763
0.420007 0 4.99043
2.84064 0 -2.7126
-16.882 0 -3.77632
40.5227 0 5.91333
-3.59076 0 5.67661
-18.1263 0 30.9212
35.3407 0 -7.78022
19.2115 0 19.5487
7.18445 0 -40.3037
-10.2089 0 13.2569
6.59848 0 -9.92803
-9.98212 0 -3.02338
-14.2138 0 10.1197
-5.98087 0 18.2218
-24.8221 0 -5.02363
-2.14545 0 -11.1208
17.3755 0 -6.48377
-17.2582 0 -64.9295
-7.82621 0 -42.5554
21.29 0 43.2606
-17.6026 0 15.271
-36.3037 0 -14.5489
43.9148 0 -49.656
-37.6405 0 32.4911
36.2865 0 -35.6385
-36.3999 0 -71.9589
23.455 0 2.20735
50.6108 0 59.5975
-1.44471 0 9.46123
4.78603 0 13.9498
4.45631 0 16.9314
-26.2578 0 -33.6171
15.2601 0 19.1656
-13.2653 0 -111.977
6.06435 0 10.1275
-0.573767 0 10.7451
-1.87624 0 -12.1921
1.87624 0 -12.1921
0.573767 0 10.7451
-6.06435 0 10.1275
13.2653 0 -111.977
-15.2601 0 19.1656
26.2578 0 -33.6171
-4.45631 0 16.9314
-4.78603 0 13.9498
1.44471 0 9.46123
-50.6108 0 59.5975
-23.455 0 2.20735
36.3999 0 -71.9589
-36.2865 0 -35.6385
37.6405 0 32.4911
-43.9148 0 -49.656
36.3037 0 -14.5489
17.6026 0 15.271
-21.29 0 43.2606
7.82621 0 -42.5554
17.2582 0 -64.9295
-17.3755 0 -6.48377
2.14545 0 -11.1208
24.8221 0 -5.02363
5.98087 0 18.2218
14.2138 0 10.1197
9.98212 0 -3.02338
-6.59848 0 -9.92803
10.2089 0 13.2569
-7.18445 0 -40.3037
-19.2115 0 19.5487
-5.26791 0 -2.06003
30.8631 0 32.3008
-19.5544 0 9.12141
-5.02104 0 0.680541
-19.4462 0 10.1357
6.67955 0 11.2037
1.56767 0 8.58439
3.82464 0 24.9848
9.6207 0 9.82504
35.3461 0 6.28197
-15.9445 0 41.6848
-7.25436 0 27.1527
-77.0969 0 -32.8958
-26.2472 0 -18.3731
76.4822 0 -22.9977
-5.16045 0 45.6568
-7.0907 0 -10.4979
-95.2583 0 10.6087
63.2577 0 -50.4835
34.9274 0 -15.6034
116.053 0 -19.7485
32.2621 0 -74.3828
-59.55 0 -186.999
-3.40011 0 -9.48171
0.304566 0 1.34203
7.44598 0 49.8858
-2.47933 0 -22.137
-9.33229 0 108.902
22.7378 0 15.73
-35.4855 0 -91.711
35.4855 0 -91.711
-22.7378 0 15.73
9.33229 0 108.902
2.47933 0 -22.137
-7.44598 0 49.8858
-0.304566 0 1.34203
3.40011 0 -9.48171
59.55 0 -186.999
-32.2621 0 -74.3828
-116.053 0 -19.7485
-34.9274 0 -15.6034
-63.2577 0 -50.4835
95.2583 0 10.6087
7.0907 0 -10.4979
5.16045 0 45.6568
-76.4822 0 -22.9977
26.2472 0 -18.3731
77.0969 0 -32.8958
7.25436 0 27.1527
15.9445 0 41.6848
-35.3461 0 6.28197
-9.6207 0 9.82504
-3.82464 0 24.9848
-1.56767 0 8.58439
-6.67955 0 11.2037
19.4462 0 10.1357
5.02104 0 0.680541
19.5544 0 9.12141
-30.8631 0 32.3008
5.26791 0 -2.06003
-9.00878 0 -46.3413
-31.4005 0 -2.01846
12.2012 0 -17.0915
17.0897 0 -0.0183835
13.0287 0 -10.0807
0.468535 0 3.76673
-8.42965 0 -20.7254
-15.3659 0 -33.1534
-22.429 0 13.0569
-37.4136 0 -34.6289
18.6964 0 8.58465
-15.8836 0 16.8448
-21.8304 0 60.767
51.6877 0 74.7568
-5.04281 0 16.269
-39.2642 0 15.1945
13.5059 0 5.75927
11.6443 0 -17.0719
-29.0201 0 180.306
21.5264 0 20.4475
-270.732 0 57.7352
70.4028 0 81.9336
213.932 0 114.353
-26.4586 0 -21.8012
-8.13425 0 21.2875
47.254 0 -10.8794
16.5245 0 -10.1471
-41.6663 0 11.161
38.8144 0 -16.5619
28.047 0 87.9908
-28.047 0 87.9908
-38.8144 0 -16.5619
41.6663 0 11.161
-16.5245 0 -10.1471
-47.254 0 -10.8794
8.13425 0 21.2875
26.4586 0 -21.8012
-213.932 0 114.353
-70.4028 0 81.9336
270.732 0 57.7352
-21.5264 0 20.4475
29.0201 0 180.306
-11.6443 0 -17.0719
-13.5059 0 5.75927
39.2642 0 15.1945
5.04281 0 16.269
-51.6877 0 74.7568
21.8304 0 60.767
15.8836 0 16.8448
-18.6964 0 8.58465
37.4136 0 -34.6289
22.429 0 13.0569
15.3659 0 -33.1534
8.42965 0 -20.7254
-0.468535 0 3.76673
-13.0287 0 -10.0807
-17.0897 0 -0.0183834
-12.2012 0 -17.0915
31.4005 0 -2.01846
9.00878 0 -46.3413
17.9001 0 37.2419
-31.5442 0 10.384
-17.6104 0 -23.0617
-0.219948 0 2.23758
8.99291 0 -8.67721
47.8208 0 -4.61782
-20.0082 0 -5.88019
37.4965 0 19.6835
-17.3147 0 9.08544
17.9405 0 -42.3871
45.6434 0 -17.9225
1.70341 0 -69.96
-16.4198 0 -44.6523
12.7964 0 -50.8489
7.3355 0 -48.7592
-8.1074 0 -36.4054
44.3794 0 -52.7188
-7.32794 0 -154.145
-159.448 0 -235.954
-47.5698 0 -69.2054
76.3383 0 -192.794
3.64688 0 -4.7229
-72.2697 0 16.5123
75.3183 0 27.9708
-16.6455 0 -105.816
4.2563 0 -56.0187
-260.88 0 -313.87
-118.179 0 11.8595
114.179 0 -5.65639
-11.6815 0 -2.57966
11.6815 0 -2.57966
-114.179 0 -5.65639
118.179 0 11.8595
260.88 0 -313.87
-4.2563 0 -56.0187
16.6455 0 -105.816
-75.3183 0 27.9708
72.2697 0 16.5123
-3.64688 0 -4.7229
-76.3383 0 -192.794
47.5698 0 -69.2054
159.448 0 -235.954
7.32794 0 -154.145
-44.3794 0 -52.7188
8.1074 0 -36.4054
-7.3355 0 -48.7592
-12.7964 0 -50.8489
16.4198 0 -44.6523
-1.70341 0 -69.96
-45.6434 0 -17.9225
-17.9405 0 -42.3871
17.3147 0 9.08544
-37.4965 0 19.6835
20.0082 0 -5.88019
-47.8208 0 -4.61782
-8.99291 0 -8.67721
0.219948 0 2.23758
17.6104 0 -23.0617
31.5442 0 10.384
-17.9001 0 37.2419
1.6419 0 13.1855
-2.53271 0 -0.322497
-6.46455 0 -42.9713
8.09717 0 26.1556
-5.11188 0 -7.16227
2.5566 0 -5.28297
-0.202086 0 4.91833
12.8542 0 8.46464
-0.324935 0 33.0381
-2.09726 0 78.2595
-13.4077 0 48.7879
10.5813 0 54.9263
10.8361 0 75.7955
-27.1339 0 53.4176
-4.77717 0 33.9716
-11.6129 0 53.0238
-99.5515 0 33.2855
6.50092 0 77.8197
218.766 0 171.231
-66.8276 0 223.638
46.5472 0 -60.1515
-145.548 0 -85.9776
70.3154 0 -44.6684
-34.6238 0 6.21706
-147.496 0 -106.711
145.464 0 -26.4279
229.029 0 287.836
5.16789 0 -118.397
52.031 0 -66.8463
46.4323 0 -37.5495
-46.4323 0 -37.5495
-52.031 0 -66.8463
-5.16788 0 -118.396
-229.029 0 287.836
-145.464 0 -26.4279
147.496 0 -106.711
34.6238 0 6.21706
-70.3154 0 -44.6684
145.548 0 -85.9776
-46.5472 0 -60.1515
66.8276 0 223.638
-218.766 0 171.231
-6.50092 0 77.8197
99.5515 0 33.2855
11.6129 0 53.0238
4.77717 0 33.9716
27.1339 0 53.4176
-10.8361 0 75.7955
-10.5813 0 54.9263
13.4077 0 48.7879
2.09726 0 78.2595
0.324935 0 33.0381
-12.8542 0 8.46464
0.202086 0 4.91833
-2.5566 0 -5.28297
5.11188 0 -7.16227
-8.09717 0 26.1556
6.46455 0 -42.9713
2.53271 0 -0.322497
-1.6419 0 13.1855
-34.5296 0 -12.7318
12.3233 0 35.5782
12.7558 0 35.0488
-35.1695 0 3.81845
27.1262 0 1.61052
-23.8448 0 9.43629
1.22736 0 -7.96209
24.8327 0 -9.50047
-0.921154 0 -10.7821
-6.96859 0 -2.29302
-7.44087 0 2.62874
-3.08235 0 -2.32533
-2.23046 0 -5.88569
-6.3499 0 -2.7712
-9.83675 0 3.44298
-10.3407 0 2.66067
-32.9868 0 14.8748
89.3007 0 54.5282
10.3174 0 22.8036
-24.1971 0 -1.53359
29.0858 0 75.2288
-11.3622 0 -45.5254
76.7244 0 99.6424
-4.21611 0 82.7729
32.9721 0 -154.757
88.693 0 151.497
26.7605 0 17.9944
-48.5742 0 166.296
43.8483 0 12.0948
-98.4641 0 -164.027
98.4641 0 -164.027
-43.8483 0 12.0948
48.5742 0 166.296
-26.7605 0 17.9944
-88.693 0 151.497
-32.9721 0 -154.757
4.21611 0 82.7729
-76.7244 0 99.6424
11.3622 0 -45.5254
-29.0858 0 75.2288
24.1971 0 -1.53359
-10.3174 0 22.8036
-89.3007 0 54.5282
32.9868 0 14.8748
10.3407 0 2.66067
9.83675 0 3.44298
6.3499 0 -2.7712
2.23046 0 -5.88569
3.08235 0 -2.32533
7.44087 0 2.62874
6.96859 0 -2.29302
0.921154 0 -10.7821
-24.8327 0 -9.50047
-1.22736 0 -7.96209
23.8448 0 9.43629
-27.1262 0 1.61052
35.1695 0 3.81845
-12.7558 0 35.0488
-12.3233 0 35.5782
34.5296 0 -12.7318
21.7743 0 5.90369
-37.6575 0 -20.4659
10.7684 0 -12.1942
10.6859 0 12.1214
-50.9977 0 -19.269
53.3933 0 -9.17846
-7.03262 0 -15.4414
-7.72545 0 -20.9833
-0.692727 0 5.3195
0.746107 0 -1.94181
-0.364495 0 -2.26043
2.65804 0 -2.29286
0.0898403 0 -1.93408
-3.32846 0 -1.16271
1.53552 0 -1.09648
7.03577 0 1.69929
-245.006 0 -218.52
-75.0584 0 -104.728
-130.113 0 -82.6516
-115.684 0 -69.6816
-216.762 0 -317.993
110.765 0 -50.4233
-187.274 0 -444.746
-172.76 0 147.867
53.4223 0 -22.0207
-8.38435 0 -30.9904
-157.745 0 -49.9639
10.504 0 109.449
-91.9677 0 22.569
24.9206 0 77.3807
-24.9206 0 77.3807
91.9677 0 22.569
-10.504 0 109.449
157.745 0 -49.9639
8.38435 0 -30.9904
-53.4223 0 -22.0207
172.76 0 147.867
187.274 0 -444.746
-110.765 0 -50.4233
216.762 0 -317.993
115.684 0 -69.6815
130.113 0 -82.6516
75.0584 0 -104.728
245.006 0 -218.52
-7.03577 0 1.69929
-1.53552 0 -1.09648
3.32846 0 -1.16271
-0.0898403 0 -1.93408
-2.65804 0 -2.29286
0.364495 0 -2.26043
-0.746107 0 -1.94181
0.692727 0 5.3195
7.72545 0 -20.9833
7.03262 0 -15.4414
-53.3933 0 -9.17846
50.9977 0 -19.269
-10.6859 0 12.1214
-10.7684 0 -12.1942
37.6575 0 -20.4659
-21.7743 0 5.90369
-2.98825 0 -14.6803
7.11255 0 -16.1804
7.29366 0 -8.28194
7.99642 0 -18.0202
-1.92967 0 -3.23837
1.43175 0 -22.8859
1.3508 0 -32.5786
2.73899 0 -11.3848
-0.499634 0 2.51965
2.92751 0 -1.08683
2.8049 0 -0.762441
4.29638 0 0.500033
2.66443 0 1.7447
-3.83391 0 3.18983
-12.6467 0 2.45553
-162.221 0 20.0633
151.484 0 -21.5389
125.58 0 125.824
42.4807 0 -130.783
164.655 0 57.593
-60.3273 0 171.238
171.699 0 217.442
117.852 0 33.3182
181.52 0 276.893
-5.69771 0 -34.8373
-49.4781 0 -129.559
-192.065 0 -357.415
187.674 0 56.2822
-7.98648 0 -267.664
4.58431 0 -110.241
-4.58432 0 -110.241
7.98647 0 -267.664
-187.674 0 56.2822
192.065 0 -357.415
49.4781 0 -129.559
5.69771 0 -34.8373
-181.52 0 276.893
-117.852 0 33.3182
-171.699 0 217.442
60.3273 0 171.238
-164.655 0 57.593
-42.4807 0 -130.783
-125.58 0 125.824
-151.484 0 -21.5389
162.221 0 20.0633
12.6467 0 2.45553
3.83391 0 3.18983
-2.66443 0 1.7447
-4.29638 0 0.500033
-2.8049 0 -0.762441
-2.92751 0 -1.08683
0.499635 0 2.51965
-2.73899 0 -11.3848
-1.3508 0 -32.5786
-1.43175 0 -22.8859
1.92967 0 -3.23837
-7.99642 0 -18.0202
-7.29366 0 -8.28194
-7.11255 0 -16.1804
2.98825 0 -14.6803
-2.98794 0 14.6808
7.11405 0 16.175
7.32682 0 8.29589
8.00871 0 18.1181
-1.78021 0 3.20621
1.95147 0 21.4013
2.10149 0 34.3639
1.21257 0 10.8577
-0.625204 0 1.75171
2.9191 0 2.06472
3.79568 0 3.47346
4.38503 0 4.66806
-38.351 0 2.56528
-232.887 0 -6.07694
266.259 0 15.2545
-39.5443 0 -61.3688
-0.545866 0 -86.3653
-82.8592 0 -26.7586
137.763 0 204.176
44.3696 0 142.094
-166.373 0 -4.3704
137.034 0 68.2527
34.3778 0 -108.787
9.89841 0 156.664
60.3594 0 45.9535
39.5028 0 195.075
86.0963 0 393.106
16.5237 0 8.71558
42.1683 0 241.007
1.61207 0 162.017
-1.61207 0 162.017
-42.1683 0 241.007
-16.5237 0 8.71558
-86.0962 0 393.106
-39.5028 0 195.075
-60.3595 0 45.9535
-9.89841 0 156.664
-34.3778 0 -108.787
-137.034 0 68.2527
166.373 0 -4.37039
-44.3696 0 142.094
-137.763 0 204.176
82.8592 0 -26.7586
0.545866 0 -86.3653
39.5443 0 -61.3688
-266.259 0 15.2545
232.887 0 -6.07694
38.351 0 2.56528
-4.38503 0 4.66806
-3.79568 0 3.47346
-2.9191 0 2.06472
0.625204 0 1.75171
-1.21257 0 10.8577
-2.10149 0 34.3639
-1.95147 0 21.4013
1.78021 0 3.20621
-8.00871 0 18.1181
-7.32682 0 8.29589
-7.11405 0 16.175
2.98794 0 14.6808
21.7625 0 -6.09086
-37.6738 0 20.3975
10.6924 0 11.6647
11.0298 0 -11.6796
-49.9824 0 18.6431
53.0029 0 2.08565
-8.30071 0 17.8278
-5.84887 0 19.7721
-0.3847 0 6.63
-0.180012 0 7.12662
-46.2589 0 5.88603
-154.81 0 -7.22615
196.933 0 10.5178
-173.985 0 -9.23111
65.0547 0 -43.1795
-69.164 0 34.6514
131.778 0 12.3746
62.3587 0 26.5334
-21.1856 0 13.2679
81.8108 0 -99.6264
-30.5245 0 -62.9361
-1.25985 0 26.8305
-189.351 0 -27.4425
127.937 0 -12.4415
-30.3934 0 -44.7032
-119.525 0 -86.8779
-0.130283 0 -130.034
80.2007 0 -38.5058
-26.8301 0 -23.3238
-20.0518 0 -62.5938
20.0518 0 -62.5938
26.8301 0 -23.3239
-80.2007 0 -38.5058
0.130289 0 -130.034
119.525 0 -86.8779
30.3934 0 -44.7032
-127.937 0 -12.4415
189.351 0 -27.4425
1.25985 0 26.8305
30.5245 0 -62.9361
-81.8108 0 -99.6264
21.1856 0 13.2679
-62.3587 0 26.5334
-131.778 0 12.3746
69.164 0 34.6514
-65.0547 0 -43.1795
173.985 0 -9.23111
-196.933 0 10.5178
154.81 0 -7.22615
46.2589 0 5.88603
0.180012 0 7.12662
0.3847 0 6.63
5.84887 0 19.7721
8.30071 0 17.8278
-53.0029 0 2.08565
49.9824 0 18.6431
-11.0298 0 -11.6796
-10.6924 0 11.6647
37.6738 0 20.3975
-21.7625 0 -6.09086
-35.339 0 11.5608
12.2252 0 -36.5165
13.6466 0 -48.6524
-39.3533 0 -3.32245
26.0113 0 -92.8795
-25.7804 0 -27.3986
1.04615 0 11.3602
-14.2842 0 -1.36292
-171.412 0 -1.28622
188.025 0 -34.589
-24.1423 0 -73.2634
-76.4574 0 -24.7651
-114.353 0 -8.07014
85.758 0 -32.0464
-91.9548 0 13.4865
123.757 0 39.7868
23.7914 0 2.68065
8.40169 0 -136.324
-232.471 0 23.2632
97.3349 0 29.718
129.419 0 -223.518
-707.859 0 51.8634
702.249 0 35.2886
-6.57575 0 9.00367
5.5746 0 -149.736
122.004 0 20.2105
-2.31707 0 114.387
-0.62973 0 -45.5453
7.62169 0 -8.17094
48.2701 0 41.5176
-48.2701 0 41.5175
-7.62169 0 -8.17095
0.629736 0 -45.5453
2.31706 0 114.387
-122.004 0 20.2105
-5.5746 0 -149.736
6.57575 0 9.00367
-702.249 0 35.2886
707.859 0 51.8634
-129.419 0 -223.518
-97.3349 0 29.718
232.471 0 23.2632
-8.40169 0 -136.324
-23.7914 0 2.68065
-123.757 0 39.7868
91.9548 0 13.4865
-85.758 0 -32.0464
114.353 0 -8.07014
76.4574 0 -24.7651
24.1423 0 -73.2634
-188.025 0 -34.589
171.412 0 -1.28622
14.2842 0 -1.36292
-1.04615 0 11.3602
25.7804 0 -27.3986
-26.0113 0 -92.8795
39.3533 0 -3.32245
-13.6466 0 -48.6524
-12.2252 0 -36.5165
35.339 0 11.5608
0.117903 0 -17.0503
-13.6329 0 -7.92031
-87.6661 0 -9.19407
-19.1506 0 -39.9545
-13.1808 0 39.1661
-12.1419 0 25.9348
-29.0465 0 -61.9315
-16.6297 0 -56.5706
-126.21 0 -39.5359
145.662 0 15.8724
58.4382 0 74.0053
-39.4101 0 16.0027
3.85457 0 -8.83548
-58.0254 0 31.8277
94.3834 0 12.7337
31.8594 0 -36.1467
-91.644 0 -53.2745
-89.7982 0 -15.6263
72.1055 0 15.7543
74.5222 0 50.9725
-156.532 0 98.8076
79.1952 0 45.4386
-240.378 0 -310.368
51.5493 0 -34.5391
-107.167 0 171.237
-63.9561 0 -151.817
18.8788 0 69.3613
8.49785 0 61.0941
60.6753 0 -133.799
139.116 0 -13.7221
-139.116 0 -13.7221
-60.6753 0 -133.799
-8.49785 0 61.0941
-18.8788 0 69.3613
63.9561 0 -151.817
107.167 0 171.237
-51.5493 0 -34.5391
240.378 0 -310.368
-79.1952 0 45.4386
156.532 0 98.8076
-74.5222 0 50.9725
-72.1055 0 15.7543
89.7982 0 -15.6263
91.644 0 -53.2745
-31.8594 0 -36.1467
-94.3834 0 12.7337
58.0254 0 31.8277
-3.85457 0 -8.83548
39.4101 0 16.0027
-58.4382 0 74.0053
-145.662 0 15.8724
126.21 0 -39.5359
16.6297 0 -56.5706
29.0465 0 -61.9315
12.1419 0 25.9348
13.1808 0 39.1661
19.1506 0 -39.9545
87.6661 0 -9.19407
13.6329 0 -7.92031
-0.117903 0 -17.0503
16.9859 0 -38.5984
-47.6232 0 -21.9269
-79.9201 0 54.8051
174.307 0 12.6525
87.0663 0 -13.5742
62.4736 0 73.3334
-8.38768 0 -12.9615
46.7554 0 67.7333
7.56862 0 71.3831
-85.7149 0 35.2385
77.5472 0 -41.2307
43.6224 0 -63.7377
4.14341 0 -21.9162
-10.6313 0 -62.2225
-97.5539 0 -76.7199
52.7022 0 20.6211
-63.9085 0 57.7277
-6.30561 0 25.5394
23.9468 0 -102.531
-4.98588 0 -72.3676
-7.02608 0 -10.487
81.6514 0 3.08557
-12.6202 0 125.903
33.7917 0 -13.0179
-48.1586 0 -29.035
52.64 0 20.3173
-64.2854 0 -65.4431
-165.492 0 59.216
32.9897 0 -90.5025
-9.26944 0 8.80984
9.26944 0 8.80984
-32.9897 0 -90.5025
165.492 0 59.2159
64.2854 0 -65.4431
-52.64 0 20.3173
48.1586 0 -29.035
-33.7917 0 -13.0179
12.6202 0 125.903
-81.6514 0 3.08557
7.02608 0 -10.487
4.98588 0 -72.3676
-23.9468 0 -102.531
6.3056 0 25.5394
63.9085 0 57.7277
-52.7022 0 20.6211
97.5539 0 -76.7199