# vtk DataFile Version 3.0
SiWiRVisFile
ASCII
DATASET UNSTRUCTURED_GRID
POINTS 1600 DOUBLE
79.1764 100 76.216
80.2566 100 76.5016
81.3795 100 76.4053
82.506 100 76.4078
83.6323 100 76.3986
84.7586 100 76.3915
85.8835 100 76.3869
87.002 100 76.3826
88.1159 100 76.3793
89.2334 100 76.378
90.3562 100 76.3772
91.4801 100 76.377
92.6031 100 76.377
93.7256 100 76.377
94.8481 100 76.3768
95.9705 100 76.3768
97.093 100 76.3768
98.2154 100 76.3768
99.3379 100 76.3768
100.46 100 76.3768
101.583 100 76.3768
102.705 100 76.3768
103.828 100 76.3768
104.95 100 76.3768
106.073 100 76.3768
107.195 100 76.3768
108.318 100 76.3768
109.44 100 76.3768
110.563 100 76.3768
111.685 100 76.3768
112.807 100 76.3768
113.93 100 76.3768
115.052 100 76.3768
116.175 100 76.3768
117.297 100 76.3768
118.42 100 76.3768
119.542 100 76.3768
120.665 100 76.3768
121.787 100 76.3768
122.91 100 76.3768
124.032 100 76.3768
125.155 100 76.3768
126.277 100 76.3768
127.399 100 76.3768
128.522 100 76.3768
129.644 100 76.3768
130.767 100 76.377
131.889 100 76.377
133.012 100 76.377
134.136 100 76.3772
135.259 100 76.378
136.376 100 76.3793
137.49 100 76.3826
138.609 100 76.3869
139.734 100 76.3915
140.86 100 76.3986
141.986 100 76.4078
143.113 100 76.4053
144.236 100 76.5016
145.316 100 76.216
79.462 100 77.2963
80.5328 100 77.5725
81.6291 100 77.4789
82.7201 100 77.4893
83.8089 100 77.4869
84.8937 100 77.4853
85.9773 100 77.4836
87.0674 100 77.4818
88.1508 100 77.4805
89.2391 100 77.4799
90.3541 100 77.4794
91.4775 100 77.4795
92.6008 100 77.4796
93.7239 100 77.4797
94.8469 100 77.4795
95.9701 100 77.4796
97.0928 100 77.4796
98.2154 100 77.4796
99.3379 100 77.4796
100.46 100 77.4796
101.583 100 77.4796
102.705 100 77.4796
103.828 100 77.4796
104.95 100 77.4796
106.073 100 77.4796
107.195 100 77.4796
108.318 100 77.4796
109.44 100 77.4796
110.563 100 77.4796
111.685 100 77.4796
112.807 100 77.4796
113.93 100 77.4796
115.052 100 77.4796
116.175 100 77.4796
117.297 100 77.4796
118.42 100 77.4796
119.542 100 77.4796
120.665 100 77.4796
121.787 100 77.4796
122.91 100 77.4796
124.032 100 77.4796
125.155 100 77.4796
126.277 100 77.4796
127.4 100 77.4796
128.522 100 77.4796
129.646 100 77.4795
130.769 100 77.4797
131.892 100 77.4796
133.015 100 77.4795
134.138 100 77.4794
135.253 100 77.4799
136.342 100 77.4805
137.425 100 77.4818
138.515 100 77.4836
139.599 100 77.4853
140.683 100 77.4869
141.772 100 77.4893
142.863 100 77.4789
143.96 100 77.5725
145.03 100 77.2963
79.3656 100 78.4191
80.4392 100 78.6687
81.5379 100 78.5775
82.6395 100 78.5885
83.7426 100 78.5853
84.8419 100 78.583
85.9446 100 78.5813
87.0494 100 78.5799
88.1441 100 78.5793
89.2457 100 78.5794
90.3635 100 78.5791
91.4857 100 78.5791
92.6066 100 78.5793
93.7275 100 78.5793
94.849 100 78.5791
95.971 100 78.5791
97.0933 100 78.5791
98.2155 100 78.579
99.3379 100 78.579
100.46 100 78.579
101.583 100 78.579
102.705 100 78.579
103.828 100 78.579
104.95 100 78.579
106.073 100 78.579
107.195 100 78.579
108.318 100 78.579
109.44 100 78.579
110.563 100 78.579
111.685 100 78.579
112.807 100 78.579
113.93 100 78.579
115.052 100 78.579
116.175 100 78.579
117.297 100 78.579
118.42 100 78.579
119.542 100 78.579
120.665 100 78.579
121.787 100 78.579
122.91 100 78.579
124.032 100 78.579
125.154 100 78.579
126.277 100 78.579
127.399 100 78.5791
128.521 100 78.5791
129.643 100 78.5791
130.765 100 78.5793
131.886 100 78.5793
133.007 100 78.5791
134.129 100 78.5791
135.247 100 78.5794
136.348 100 78.5793
137.443 100 78.5799
138.548 100 78.5813
139.651 100 78.583
140.75 100 78.5853
141.853 100 78.5885
142.955 100 78.5775
144.053 100 78.6687
145.127 100 78.4191
79.3681 100 79.5456
80.4497 100 79.7598
81.5488 100 79.6791
82.6477 100 79.6873
83.7478 100 79.684
84.8436 100 79.6812
85.9429 100 79.6797
87.045 100 79.6789
88.1374 100 79.679
89.2374 100 79.6792
90.3553 100 79.679
91.4785 100 79.679
92.6017 100 79.6792
93.7246 100 79.6793
94.8473 100 79.6792
95.97 100 79.6792
97.0928 100 79.6794
98.2154 100 79.6794
99.3379 100 79.6794
100.46 100 79.6794
101.583 100 79.6794
102.705 100 79.6794
103.828 100 79.6794
104.95 100 79.6794
106.073 100 79.6794
107.195 100 79.6794
108.318 100 79.6794
109.44 100 79.6794
110.563 100 79.6794
111.685 100 79.6794
112.807 100 79.6794
113.93 100 79.6794
115.052 100 79.6794
116.175 100 79.6794
117.297 100 79.6794
118.42 100 79.6794
119.542 100 79.6794
120.665 100 79.6794
121.787 100 79.6794
122.91 100 79.6794
124.032 100 79.6794
125.155 100 79.6794
126.277 100 79.6794
127.4 100 79.6794
128.522 100 79.6792
129.645 100 79.6792
130.768 100 79.6793
131.891 100 79.6792
133.014 100 79.679
134.137 100 79.679
135.255 100 79.6792
136.355 100 79.679
137.447 100 79.6789
138.549 100 79.6797
139.649 100 79.6812
140.745 100 79.684
141.845 100 79.6873
142.944 100 79.6791
144.043 100 79.7598
145.124 100 79.5456
79.3589 100 80.672
80.4472 100 80.8486
81.5457 100 80.7822
82.6444 100 80.7874
83.7449 100 80.7845
84.8415 100 80.7818
85.9426 100 80.7806
87.0457 100 80.78
88.1385 100 80.7803
89.2403 100 80.7803
90.3582 100 80.78
91.4814 100 80.7801
92.604 100 80.78
93.726 100 80.78
94.8483 100 80.7799
95.9706 100 80.7799
97.093 100 80.7799
98.2155 100 80.7799
99.3379 100 80.7799
100.46 100 80.7799
101.583 100 80.7799
102.705 100 80.7799
103.828 100 80.7799
104.95 100 80.7799
106.073 100 80.7799
107.195 100 80.7799
108.318 100 80.7799
109.44 100 80.7799
110.563 100 80.7799
111.685 100 80.7799
112.807 100 80.7799
113.93 100 80.7799
115.052 100 80.7799
116.175 100 80.7799
117.297 100 80.7799
118.42 100 80.7799
119.542 100 80.7799
120.665 100 80.7799
121.787 100 80.7799
122.91 100 80.7799
124.032 100 80.7799
125.155 100 80.7799
126.277 100 80.7799
127.399 100 80.7799
128.522 100 80.7799
129.644 100 80.7799
130.766 100 80.78
131.888 100 80.78
133.011 100 80.7801
134.134 100 80.78
135.252 100 80.7803
136.354 100 80.7803
137.447 100 80.78
138.55 100 80.7806
139.651 100 80.7818
140.748 100 80.7845
141.848 100 80.7874
142.947 100 80.7822
144.045 100 80.8486
145.133 100 80.672
79.3519 100 81.7982
80.4456 100 81.9335
81.5434 100 81.8814
82.6416 100 81.8834
83.7422 100 81.8811
84.8396 100 81.8793
85.9416 100 81.8782
87.045 100 81.8779
88.1376 100 81.878
89.2398 100 81.878
90.3576 100 81.8779
91.4805 100 81.8778
92.6031 100 81.8778
93.7255 100 81.8777
94.848 100 81.8777
95.9705 100 81.8777
97.093 100 81.8777
98.2154 100 81.8777
99.3379 100 81.8777
100.46 100 81.8777
101.583 100 81.8777
102.705 100 81.8777
103.828 100 81.8777
104.95 100 81.8777
106.073 100 81.8777
107.195 100 81.8777
108.318 100 81.8777
109.44 100 81.8777
110.563 100 81.8777
111.685 100 81.8777
112.807 100 81.8777
113.93 100 81.8777
115.052 100 81.8777
116.175 100 81.8777
117.297 100 81.8777
118.42 100 81.8777
119.542 100 81.8777
120.665 100 81.8777
121.787 100 81.8777
122.91 100 81.8777
124.032 100 81.8777
125.155 100 81.8777
126.277 100 81.8777
127.399 100 81.8777
128.522 100 81.8777
129.644 100 81.8777
130.767 100 81.8777
131.889 100 81.8778
133.012 100 81.8778
134.135 100 81.8779
135.253 100 81.878
136.355 100 81.878
137.447 100 81.8779
138.551 100 81.8782
139.653 100 81.8793
140.75 100 81.8811
141.851 100 81.8834
142.949 100 81.8814
144.047 100 81.9335
145.141 100 81.7982
79.3473 100 82.9231
80.4439 100 83.0174
81.5417 100 82.9837
82.6401 100 82.9831
83.7409 100 82.9822
84.8386 100 82.9812
85.9408 100 82.9804
87.0444 100 82.98
88.1369 100 82.9799
89.2399 100 82.98
90.3582 100 82.9801
91.4806 100 82.9802
92.6031 100 82.9802
93.7256 100 82.9802
94.848 100 82.9802
95.9705 100 82.9802
97.093 100 82.9802
98.2154 100 82.9802
99.3379 100 82.9802
100.46 100 82.9802
101.583 100 82.9802
102.705 100 82.9802
103.828 100 82.9802
104.95 100 82.9802
106.073 100 82.9802
107.195 100 82.9802
108.318 100 82.9802
109.44 100 82.9802
110.563 100 82.9802
111.685 100 82.9802
112.807 100 82.9802
113.93 100 82.9802
115.052 100 82.9802
116.175 100 82.9802
117.297 100 82.9802
118.42 100 82.9802
119.542 100 82.9802
120.665 100 82.9802
121.787 100 82.9802
122.91 100 82.9802
124.032 100 82.9802
125.155 100 82.9802
126.277 100 82.9802
127.399 100 82.9802
128.522 100 82.9802
129.644 100 82.9802
130.767 100 82.9802
131.889 100 82.9802
133.012 100 82.9802
134.134 100 82.9801
135.252 100 82.98
136.355 100 82.9799
137.448 100 82.98
138.552 100 82.9804
139.654 100 82.9812
140.751 100 82.9822
141.852 100 82.9831
142.951 100 82.9837
144.048 100 83.0174
145.145 100 82.9231
79.3429 100 84.0417
80.4421 100 84.1079
81.5402 100 84.0875
82.6392 100 84.0858
83.7404 100 84.0852
84.8383 100 84.0847
85.9403 100 84.084
87.0436 100 84.0832
88.1358 100 84.0828
89.2395 100 84.0826
90.3584 100 84.0826
91.4807 100 84.0826
92.6031 100 84.0826
93.7256 100 84.0826
94.848 100 84.0826
95.9705 100 84.0826
97.093 100 84.0826
98.2154 100 84.0826
99.3379 100 84.0826
100.46 100 84.0826
101.583 100 84.0826
102.705 100 84.0826
103.828 100 84.0826
104.95 100 84.0826
106.073 100 84.0826
107.195 100 84.0826
108.318 100 84.0826
109.44 100 84.0826
110.563 100 84.0826
111.685 100 84.0826
112.807 100 84.0826
113.93 100 84.0826
115.052 100 84.0826
116.175 100 84.0826
117.297 100 84.0826
118.42 100 84.0826
119.542 100 84.0826
120.665 100 84.0826
121.787 100 84.0826
122.91 100 84.0826
124.032 100 84.0826
125.155 100 84.0826
126.277 100 84.0826
127.399 100 84.0826
128.522 100 84.0826
129.644 100 84.0826
130.767 100 84.0826
131.889 100 84.0826
133.012 100 84.0826
134.134 100 84.0826
135.253 100 84.0826
136.357 100 84.0828
137.449 100 84.0832
138.552 100 84.084
139.654 100 84.0847
140.752 100 84.0852
141.853 100 84.0858
142.952 100 84.0875
144.05 100 84.1079
145.149 100 84.0417
79.3397 100 85.1559
80.441 100 85.1921
81.5396 100 85.1811
82.6392 100 85.179
83.7405 100 85.1781
84.8382 100 85.1774
85.9402 100 85.1766
87.0431 100 85.1754
88.1351 100 85.1747
89.239 100 85.1744
90.3583 100 85.1743
91.4807 100 85.1743
92.6031 100 85.1743
93.7256 100 85.1743
94.848 100 85.1743
95.9705 100 85.1743
97.093 100 85.1743
98.2154 100 85.1743
99.3379 100 85.1743
100.46 100 85.1743
101.583 100 85.1743
102.705 100 85.1743
103.828 100 85.1743
[...]
POINT_DATA 1600
SCALARS mass double
LOOKUP_TABLE default
1
1
1
1
1
1
1
1
1
1
1
1
1
1
1
1
1
1
1
1
1
1
1
1
1
1
1
1
1
1
1
1
1
1
1
1
1
1
1
1
1
1
1
1
1
1
1
1
1
1
1
1
1
1
1
1
1
1
1
1
1
1
1
1
1
1
1
1
1
1
1
1
1
1
1
1
1
1
1
1
1
1
1
1
1
1
1
1
1
1
1
1
1
1
1
1
1
1
1
1
1
1
1
1
1
1
1
1
1
1
1
1
1
1
1
1
1
1
1
1
1
1
1
1
1
1
1
1
1
1
1
1
1
1
1
1
1
1
1
1
1
1
1
1
1
1
1
1
1
1
1
1
1
1
1
1
1
1
1
1
1
1
1
1
1
1
1
1
1
1
1
1
1
1
1
1
1
1
1
1
1
1
1
1
1
1
1
1
1
1
1
1
1
1
1
1
1
1
1
1
1
1
1
1
1
1
1
1
1
1
1
1
1
1
1
1
1
1
1
1
1
1
1
1
1
1
1
1
1
1
1
1
1
1
1
1
1
1
1
1
1
1
1
1
1
1
1
1
1
1
1
1
1
1
1
1
1
1
1
1
1
1
1
1
1
1
1
1
1
1
1
1
1
1
1
1
1
1
1
1
1
1
1
1
1
1
1
1
1
1
1
1
1
1
1
1
1
1
1
1
1
1
1
1
1
1
1
1
1
1
1
1
1
1
1
1
1
1
1
1
1
1
1
1
1
1
1
1
1
1
1
1
1
1
1
1
1
1
1
1
1
1
1
1
1
1
1
1
1
1
1
1
1
1
1
1
1
1
1
1
1
1
1
1
1
1
1
1
1
1
1
1
1
1
1
1
1
1
1
1
1
1
1
1
1
1
1
1
1
1
1
1
1
1
1
1
1
1
1
1
1
1
1
1
1
1
1
1
1
1
1
1
1
1
1
1
1
1
1
1
1
1
1
1
1
1
1
1
1
1
1
1
1
1
1
1
1
1
1
1
1
1
1
1
1
1
1
1
1
1
1
1
1
1
1
1
1
1
1
1
1
1
1
1
1
1
1
1
1
1
1
1
1
1
1
1
1
1
1
1
1
1
1
1
1
1
1
1
1
1
1
1
1
1
1
1
1
1
1
1
1
1
1
1
1
1
1
1
1
1
1
1
1
1
1
1
1
1
1
1
1
1
1
1
1
1
1
1
1
1
1
1
1
1
1
1
1
1
1
1
1
1
1
1
1
1
1
1
1
1
1
1
1
1
1
1
1
1
1
1
1
1
1
1
1
1
1
1
1
1
1
1
1
1
1
1
1
1
1
1
1
1
1
1
1
1
1
1
1
1
1
1
1
1
1
1
1
1
1
1
1
1
1
1
1
1
1
1
1
1
1
1
1
1
1
1
1
1
1
1
1
1
1
1
1
1
1
1
1
1
1
1
1
1
1
1
1
1
1
1
1
1
1
1
1
1
1
1
1
1
1
1
1
1
1
1
1
1
1
1
1
1
1
1
1
1
1
1
1
1
1
1
1
1
1
1
1
1
1
1
1
1
1
1
1
1
1
1
1
1
1
1
1
1
1
1
1
1
1
1
1
1
1
1
1
1
1
1
1
1
1
1
1
1
1
1
1
1
1
1
1
1
1
1
1
1
1
1
1
1
1
1
1
1
1
1
1
1
1
1
1
1
1
1
1
1
1
1
1
1
1
1
1
1
1
1
1
1
1
1
1
1
1
1
1
1
1
1
1
1
1
1
1
1
1
1
1
1
1
1
1
1
1
1
1
1
1
1
1
1
1
1
1
1
1
1
1
1
1
1
1
1
1
1
1
1
1
1
1
1
1
1
1
1
1
1
1
1
1
1
1
1
1
1
1
1
1
1
1
1
1
1
1
1
1
1
1
1
1
1
1
1
1
1
1
1
1
1
1
1
1
1
1
1
1
1
1
1
1
1
1
1
1
1
1
1
1
1
1
1
1
1
1
1
1
1
1
1
1
1
1
1
1
1
1
1
1
1
1
1
1
1
1
1
1
1
1
1
1
1
1
1
1
1
1
1
1
1
1
1
1
1
1
1
1
1
1
1
1
1
1
1
1
1
1
1
1
1
1
1
1
1
1
1
1
1
1
1
1
1
1
1
1
1
1
1
1
1
1
1
1
1
1
1
1
1
1
1
1
1
1
1
1
1
1
1
1
1
1
1
1
1
1
1
1
1
1
1
1
1
1
1
1
1
1
1
1
1
1
1
1
1
1
1
1
1
1
1
1
1
1
1
1
1
1
1
1
1
1
1
1
1
1
1
1
1
1
1
1
1
1
1
1
1
1
1
1
1
1
1
1
1
1
1
1
1
1
1
1
1
1
1
1
1
1
1
1
1
1
1
1
1
1
1
1
1
1
1
1
1
1
1
1
1
1
1
1
1
1
1
1
1
1
1
1
1
1
1
1
1
1
1
1
1
1
1
1
1
1
1
1
1
1
1
1
1
1
1
1
1
1
1
1
1
1
1
1
1
1
1
1
1
1
1
1
1
1
1
1
1
1
1
1
1
1
1
1
1
1
1
1
1
1
1
1
1
1
1
1
1
1
1
1
1
1
1
1
1
1
1
1
1
1
1
1
1
1
1
1
1
1
1
1
1
1
1
1
1
1
1
1
1
1
1
1
1
1
1
1
1
1
1
1
1
1
1
1
1
1
1
1
1
1
1
1
1
1
1
1
1
1
1
1
1
1
1
1
1
1
1
1
1
1
1
1
1
1
1
1
1
1
1
1
1
1
1
1
1
1
1
1
1
1
1
1
1
1
1
1
1
1
1
1
1
1
1
1
1
1
1
1
1
1
1
1
1
1
1
1
1
1
1
1
1
1
1
1
1
1
1
1
1
1
1
1
1
1
1
1
1
1
1
1
1
1
1
1
1
1
1
1
1
1
1
1
1
1
1
1
1
1
1
1
1
1
1
1
1
1
1
1
1
1
1
1
1
1
1
1
1
1
1
1
1
1
1
1
1
1
1
1
1
1
1
1
1
1
1
1
1
1
1
1
1
1
1
1
1
1
1
1
1
1
1
1
1
1
1
1
1
1
1
1
1
1
1
1
1
1
1
1
1
1
1
1
1
1
1
1
1
1
1
1
1
1
1
1
1
1
1
1
1
1
1
1
1
1
1
1
1
1
1
1
1
1
1
1
1
1
1
1
1
1
1
1
1
1
1
1
1
1
1
1
1
1
1
1
1
1
1
1
1
1
1
1
1
1
1
1
1
1
1
1
1
1
1
1
1
1
1
1
1
1
1
1
1
1
1
1
1
1
1
1
1
1
1
1
1
1
1
1
1
1
1
1
1
1
1
1
1
1
1
1
1
1
1
1
1
1
1
1
1
1
1
1
1
1
1
1
1
1
1
1
1
1
1
1
1
1
1
1
1
1
1
1
1
1
1
1
1
1
1
1
1
1
1
1
1
1
1
1
1
1
1
1
1
1
1
1
1
1
1
1
1
1
1
1
1
1
1
1
1
1
1
1
1
1
1
1
1
1
1
1
1
1
1
1
1
1
1
1
1
1
1
1
1
1
1
1
1
1
1
1
1
1
1
1
1
1
1
1
1
1
1
1
1
1
1
1
1
VECTORS force double
-0.514484 0 -0.51449
3.68373 0 -1.89886
-4.70914 0 1.60353
-5.19654 0 2.79124
-4.07663 0 2.22933
-3.56057 0 1.6053
-4.16385 0 0.610248
-2.89819 0 0.650231
0.322843 0 0.794515
1.23869 0 0.471736
0.0948135 0 0.11167
-0.400486 0 0.141516
-0.0584309 0 0.102832
0.0126658 0 0.117359
0.0196331 0 0.141256
0.0142024 0 0.178725
0.0064146 0 0.184459
0.00217514 0 0.179052
0.000636794 0 0.177374
0.000162748 0 0.177014
3.28355e-05 0 0.176941
4.54988e-06 0 0.176954
2.76573e-07 0 0.176956
7.36053e-09 0 0.176956
-1.49545e-11 0 0.176956
3.96794e-12 0 0.176956
-8.0721e-12 0 0.176956
7.94698e-12 0 0.176956
-7.94731e-12 0 0.176956
8.07177e-12 0 0.176956
-3.96783e-12 0 0.176956
-1.25677e-13 0 0.176956
1.11022e-16 0 0.176956
1.25677e-13 0 0.176956
3.96794e-12 0 0.176956
6.7214e-12 0 0.176956
-7.38087e-09 0 0.176956
-2.76486e-07 0 0.176956
-4.55001e-06 0 0.176954
-3.28354e-05 0 0.176941
-0.000162748 0 0.177014
-0.000636794 0 0.177374
-0.00217514 0 0.179052
-0.0064146 0 0.184459
-0.0142024 0 0.178725
-0.0196331 0 0.141256
-0.0126658 0 0.117359
0.0584309 0 0.102832
0.400486 0 0.141516
-0.0948135 0 0.11167
-1.23869 0 0.471736
-0.322843 0 0.794515
2.89819 0 0.650231
4.16385 0 0.610248
3.56057 0 1.6053
4.07663 0 2.22933
5.19654 0 2.79124
4.70914 0 1.60353
-3.68373 0 -1.89886
0.514484 0 -0.51449
-1.89891 0 3.68366
3.6274 0 3.62799
3.45223 0 -2.38066
5.43302 0 0.0658661
3.4153 0 -0.407474
3.77622 0 -0.495413
6.50048 0 0.00678313
-1.53683 0 -0.0307897
3.63746 0 0.0522849
10.7082 0 0.0209836
1.83313 0 -0.0529117
-0.609398 0 -0.248684
-0.407517 0 -0.230289
-0.325405 0 -0.23923
-0.193723 0 -0.330046
-0.344661 0 -0.412951
-0.0618541 0 -0.31669
-0.0201565 0 -0.350265
-0.00689604 0 -0.351486
-0.00183291 0 -0.351429
-0.000447471 0 -0.351383
-5.66039e-05 0 -0.351397
-2.63564e-06 0 -0.351399
-5.2678e-08 0 -0.351399
-2.94765e-10 0 -0.351399
5.17902e-12 0 -0.351399
-7.84994e-12 0 -0.351399
7.73475e-12 0 -0.351399
-7.73442e-12 0 -0.351399
7.84938e-12 0 -0.351399
-3.86369e-12 0 -0.351399
-1.11576e-13 0 -0.351399
2.77556e-16 0 -0.351399
1.12301e-13 0 -0.351399
2.45592e-12 0 -0.351399
3.03106e-10 0 -0.351399
5.26364e-08 0 -0.351399
2.63571e-06 0 -0.351399
5.66038e-05 0 -0.351397
0.000447471 0 -0.351383
0.00183291 0 -0.351429
0.00689604 0 -0.351486
0.0201565 0 -0.350265
0.0618541 0 -0.31669
0.344661 0 -0.412951
0.193723 0 -0.330046
0.325405 0 -0.23923
0.407517 0 -0.230289
0.609398 0 -0.248684
-1.83313 0 -0.0529117
-10.7082 0 0.0209836
-3.63746 0 0.0522849
1.53683 0 -0.0307897
-6.50048 0 0.00678313
-3.77622 0 -0.495413
-3.4153 0 -0.407474
-5.43302 0 0.0658661
-3.45223 0 -2.38066
-3.6274 0 3.62799
1.89891 0 3.68366
1.6037 0 -4.70945
-2.38028 0 3.45574
-3.35069 0 -3.35257
-1.4715 0 -1.24682
-3.09139 0 -1.02473
0.130169 0 -0.74724
-0.00756835 0 -0.303723
-4.5952 0 0.0153985
2.86758 0 0.120721
5.75114 0 -0.0144545
1.57712 0 -0.0071016
0.291677 0 0.104881
0.601977 0 0.153061
0.662634 0 0.13898
0.597396 0 0.247018
0.462605 0 0.300942
0.334278 0 0.332034
0.250773 0 0.339591
0.014004 0 0.261754
0.00294994 0 0.265305
0.000587378 0 0.265331
6.50002e-05 0 0.265319
3.77734e-06 0 0.265302
6.21294e-08 0 0.265303
3.11674e-10 0 0.265303
2.15261e-12 0 0.265303
-7.41965e-12 0 0.265303
7.73823e-12 0 0.265303
-7.73656e-12 0 0.265303
7.42101e-12 0 0.265303
-3.8613e-12 0 0.265303
3.16969e-13 0 0.265303
9.15934e-16 0 0.265303
-3.15567e-13 0 0.265303
5.49438e-12 0 0.265303
-3.07474e-10 0 0.265303
-6.21718e-08 0 0.265303
-3.77726e-06 0 0.265302
-6.50002e-05 0 0.265319
-0.000587378 0 0.265331
-0.00294994 0 0.265305
-0.014004 0 0.261754
-0.250773 0 0.339591
-0.334278 0 0.332034
-0.462605 0 0.300942
-0.597396 0 0.247018
-0.662634 0 0.13898
-0.601977 0 0.153061
-0.291677 0 0.104881
-1.57712 0 -0.0071016
-5.75114 0 -0.0144545
-2.86758 0 0.120721
4.5952 0 0.0153985
0.00756835 0 -0.303723
-0.130169 0 -0.74724
3.09139 0 -1.02473
1.4715 0 -1.24682
3.35069 0 -3.35257
2.38028 0 3.45574
-1.6037 0 -4.70945
2.79171 0 -5.19799
0.0655023 0 5.44893
-1.24953 0 -1.47982
0.826654 0 0.837971
-1.64523 0 0.776888
1.62756 0 1.00952
1.05183 0 1.01435
-4.29283 0 0.924952
3.09294 0 0.671513
5.80385 0 0.580797
0.857198 0 0.458231
-0.577417 0 0.415338
-0.581939 0 0.297876
-0.504285 0 0.286312
-0.446945 0 0.231796
-0.338343 0 0.216852
-0.42977 0 0.127922
-0.209 0 -0.0229588
-0.181548 0 -0.0321843
-0.00525822 0 0.047008
-0.000391181 0 0.047059
-1.72622e-05 0 0.0470467
-2.39954e-05 0 0.0470794
-1.23284e-08 0 0.0470795
5.08327e-10 0 0.0470795
3.86402e-12 0 0.0470795
-7.15106e-12 0 0.0470795
7.73426e-12 0 0.0470795
-7.73459e-12 0 0.0470795
7.15072e-12 0 0.0470795
-3.86391e-12 0 0.0470795
5.8753e-13 0 0.0470795
-7.77156e-16 0 0.0470795
-5.87974e-13 0 0.0470795
3.86402e-12 0 0.0470795
-5.16235e-10 0 0.0470795
1.23046e-08 0 0.0470795
2.39955e-05 0 0.0470794
1.72621e-05 0 0.0470467
0.000391181 0 0.047059
0.00525822 0 0.047008
0.181548 0 -0.0321843
0.209 0 -0.0229588
0.42977 0 0.127922
0.338343 0 0.216852
0.446945 0 0.231796
0.504285 0 0.286312
0.581939 0 0.297876
0.577417 0 0.415338
-0.857198 0 0.458231
-5.80385 0 0.580797
-3.09294 0 0.671513
4.29283 0 0.924952
-1.05183 0 1.01435
-1.62756 0 1.00952
1.64523 0 0.776888
-0.826654 0 0.837972
1.24953 0 -1.47982
-0.0655023 0 5.44893
-2.79171 0 -5.19799
2.2318 0 -4.0797
-0.407684 0 3.46079
-1.02586 0 -3.13096
0.778928 0 -1.59911
-1.6444 0 -1.65452
1.85514 0 -1.40545
0.795122 0 -1.3683
-4.36849 0 -1.39903
3.89144 0 -1.53971
5.5629 0 -1.43074
1.52667 0 -1.31131
-0.106781 0 -1.3677
0.277191 0 -1.25857
0.279696 0 -1.1646
0.230413 0 -1.15438
0.0347306 0 -1.04714
0.019469 0 -1.00774
0.0016903 0 -1.00142
0.00723459 0 -0.991051
0.0019451 0 -0.986352
0.000341511 0 -0.9863
7.36789e-05 0 -0.98622
3.02831e-07 0 -0.986238
5.74369e-09 0 -0.986238
-1.92836e-11 0 -0.986238
3.86025e-12 0 -0.986238
-7.70251e-12 0 -0.986238
7.73646e-12 0 -0.986238
-7.73798e-12 0 -0.986238
7.70277e-12 0 -0.986238
-3.8633e-12 0 -0.986238
3.07948e-14 0 -0.986238
-1.05471e-15 0 -0.986238
-3.08781e-14 0 -0.986238
3.86735e-12 0 -0.986238
1.16856e-11 0 -0.986238
-5.76354e-09 0 -0.986238
-3.02755e-07 0 -0.986238
-7.3679e-05 0 -0.98622
-0.000341511 0 -0.9863
-0.0019451 0 -0.986352
-0.00723459 0 -0.991051
-0.0016903 0 -1.00142
-0.019469 0 -1.00774
-0.0347306 0 -1.04714
-0.230413 0 -1.15438
-0.279696 0 -1.1646
-0.277191 0 -1.25857
0.106781 0 -1.3677
-1.52667 0 -1.31131
-5.5629 0 -1.43074
-3.89144 0 -1.53971
4.36849 0 -1.39903
-0.795122 0 -1.3683
-1.85514 0 -1.40545
1.6444 0 -1.65452
-0.778928 0 -1.59911
1.02586 0 -3.13096
0.407684 0 3.46079
-2.2318 0 -4.0797
1.61243 0 -3.5666
-0.493966 0 3.84869
-0.754071 0 -0.0114725
1.00584 0 1.74947
-1.40448 0 1.83681
1.80624 0 1.80615
0.572695 0 1.81174
-4.63778 0 1.69581
4.09292 0 1.73367
5.28453 0 1.78069
0.998429 0 1.78444
-0.273732 0 1.85814
-0.0797809 0 1.76225
0.00192778 0 1.79188
-0.00877745 0 1.77717
-0.00697387 0 1.76846
-0.00346273 0 1.77559
-0.00237305 0 1.77383
-0.000972099 0 1.76859
-0.000258184 0 1.7676
-3.53161e-05 0 1.76743
-4.38078e-06 0 1.7674
-1.84705e-07 0 1.7674
-1.67249e-09 0 1.7674
-6.35178e-12 0 1.7674
3.8316e-12 0 1.7674
-8.15234e-12 0 1.7674
7.72049e-12 0 1.7674
-7.72099e-12 0 1.7674
8.14371e-12 0 1.7674
-3.86552e-12 0 1.7674
-4.07674e-13 0 1.7674
3.05311e-15 0 1.7674
4.15223e-13 0 1.7674
3.90132e-12 0 1.7674
-1.30596e-12 0 1.7674
1.6726e-09 0 1.7674
1.84753e-07 0 1.7674
4.38068e-06 0 1.7674
3.53161e-05 0 1.76743
0.000258184 0 1.7676
0.000972099 0 1.76859
0.00237305 0 1.77383
0.00346273 0 1.77559
0.00697387 0 1.76846
0.00877744 0 1.77717
-0.00192778 0 1.79188
0.0797809 0 1.76225
0.273732 0 1.85814
-0.998429 0 1.78444
-5.28453 0 1.78069
-4.09292 0 1.73367
4.63778 0 1.69581
-0.572695 0 1.81174
-1.80624 0 1.80615
1.40448 0 1.83681
-1.00584 0 1.74947
0.754071 0 -0.0114725
0.493966 0 3.84869
-1.61243 0 -3.5666
0.623669 0 -4.14095
0.0124592 0 6.61603
-0.314731 0 -0.284043
1.0065 0 1.20704
-1.36827 0 0.772949
1.81369 0 0.574697
0.576219 0 0.575869
-4.74459 0 0.484184
4.48733 0 0.390962
5.1219 0 0.203868
0.78672 0 0.111901
-0.335969 0 -0.0124854
-0.0138558 0 -0.031466
0.00153015 0 -0.0476117
0.000969287 0 -0.0494317
0.000594514 0 -0.049471
0.000316701 0 -0.0480478
0.000121107 0 -0.0475692
2.99312e-05 0 -0.0475124
6.37715e-06 0 -0.0474612
4.37965e-07 0 -0.0474631
-2.76715e-08 0 -0.0474628
9.88617e-10 0 -0.0474627
1.23904e-11 0 -0.0474627
9.15551e-12 0 -0.0474627
4.20917e-12 0 -0.0474627
-8.44602e-12 0 -0.0474627
7.48243e-12 0 -0.0474627
-7.57872e-12 0 -0.0474627
8.07533e-12 0 -0.0474627
-4.0668e-12 0 -0.0474627
-2.93307e-13 0 -0.0474627
2.56128e-13 0 -0.0474627
7.08322e-13 0 -0.0474627
3.79628e-12 0 -0.0474627
-1.68996e-11 0 -0.0474627
-4.70124e-12 0 -0.0474627
-9.97175e-10 0 -0.0474627
2.76633e-08 0 -0.0474628
-4.3793e-07 0 -0.0474631
-6.37711e-06 0 -0.0474612
-2.99311e-05 0 -0.0475124
-0.000121107 0 -0.0475692
-0.0003167 0 -0.0480478
-0.000594515 0 -0.049471
-0.000969286 0 -0.0494317
-0.00153015 0 -0.0476117
0.0138558 0 -0.031466
0.335969 0 -0.0124854
-0.78672 0 0.111901
-5.1219 0 0.203868
-4.48733 0 0.390962
4.74459 0 0.484184
-0.576219 0 0.575869
-1.81369 0 0.574697
1.36827 0 0.772949
-1.0065 0 1.20704
0.314731 0 -0.284043
-0.0124592 0 6.61603
-0.623669 0 -4.14095
0.65848 0 -2.84837
-0.014909 0 -1.14957
0.000117401 0 -4.86422
0.916886 0 -4.13397
-1.39824 0 -4.33828
1.70198 0 -4.5814
0.489156 0 -4.73287
-4.74863 0 -4.75043
4.89456 0 -4.77526
5.02114 0 -4.74604
0.740714 0 -4.63433
-0.130797 0 -4.57028
-0.00500317 0 -4.48419
0.00177618 0 -4.48425
0.000167758 0 -4.4843
-0.000102468 0 -4.48428
-2.23483e-06 0 -4.48419
2.40691e-06 0 -4.48413
6.16167e-07 0 -4.48411
1.04915e-07 0 -4.4841
-2.47649e-08 0 -4.48411
4.24244e-09 0 -4.48411
-8.87292e-10 0 -4.48411
-7.42022e-10 0 -4.48411
1.83e-10 0 -4.48411
4.40279e-11 0 -4.48411
-1.64885e-11 0 -4.48411
-5.75096e-13 0 -4.48411
-7.03498e-12 0 -4.48411
1.13043e-11 0 -4.48411
-7.45579e-12 0 -4.48411
-6.72795e-13 0 -4.48411
8.30583e-12 0 -4.48411
8.75255e-12 0 -4.48411
-3.6172e-11 0 -4.48411
-1.91542e-10 0 -4.48411
7.48524e-10 0 -4.48411
8.77754e-10 0 -4.48411
-4.24773e-09 0 -4.48411
2.47864e-08 0 -4.48411
-1.04858e-07 0 -4.4841
-6.15972e-07 0 -4.48411
-2.40716e-06 0 -4.48413
2.23445e-06 0 -4.48419
0.000102468 0 -4.48428
-0.000167758 0 -4.4843
-0.00177618 0 -4.48425
0.00500317 0 -4.48419
0.130797 0 -4.57028
-0.740714 0 -4.63433
-5.02114 0 -4.74604
-4.89456 0 -4.77526
4.74863 0 -4.75043
-0.489156 0 -4.73287
-1.70198 0 -4.5814
1.39824 0 -4.33828
-0.916886 0 -4.13397
-0.000117401 0 -4.86422
0.014909 0 -1.14957
-0.65848 0 -2.84837
0.832395 0 0.664789
-0.0687796 0 4.09413
0.22059 0 2.44921
0.593428 0 3.45993
-1.47123 0 3.85792
1.7379 0 4.17946
0.3741 0 4.45657
-4.77469 0 4.83397
5.0949 0 5.07815
5.02466 0 5.21307
0.632417 0 5.18713
-0.163722 0 5.21488
0.00530726 0 5.12865
0.002548 0 5.12596
0.00043797 0 5.12575
-2.78359e-05 0 5.12562
-1.63745e-06 0 5.12563
6.57868e-07 0 5.12564
1.35535e-07 0 5.12564
-1.53441e-07 0 5.12563
-9.83493e-08 0 5.12564
1.05819e-07 0 5.12564
-5.69111e-09 0 5.12564
-1.96159e-08 0 5.12564
2.24989e-09 0 5.12564
1.75139e-09 0 5.12564
-1.3987e-10 0 5.12564
-2.71116e-10 0 5.12564
-1.54301e-11 0 5.12564
9.22769e-11 0 5.12564
-8.8418e-11 0 5.12564
7.70013e-12 0 5.12564
2.78885e-10 0 5.12564
1.31247e-10 0 5.12564
-1.74287e-09 0 5.12564
-2.22945e-09 0 5.12564
1.95734e-08 0 5.12564
5.75102e-09 0 5.12564
-1.05897e-07 0 5.12564
9.84073e-08 0 5.12564
1.53467e-07 0 5.12563
-1.35344e-07 0 5.12564
-6.58086e-07 0 5.12564
1.63706e-06 0 5.12563
2.78361e-05 0 5.12562
-0.00043797 0 5.12575
-0.002548 0 5.12596
-0.00530727 0 5.12865
0.163722 0 5.21488
-0.632417 0 5.18713
-5.02466 0 5.21307
-5.0949 0 5.07815
4.77469 0 4.83397
-0.3741 0 4.45657
-1.7379 0 4.17946
1.47123 0 3.85792
-0.593428 0 3.45993
-0.22059 0 2.44921
0.0687796 0 4.09413
-0.832395 0 0.664789
0.558415 0 0.948254
0.076188 0 8.33791
0.0521991 0 4.23774
0.464281 0 4.16557
-1.4405 0 4.06406
1.75458 0 3.93326
0.329624 0 3.94366
-4.79208 0 4.06969
5.22222 0 4.17579
4.85383 0 4.13004
0.393031 0 4.23808
-0.149313 0 4.12577
0.0135455 0 4.21122
0.00307584 0 4.21133
0.000502696 0 4.21122
6.89257e-05 0 4.21125
7.38944e-06 0 4.21126
1.05426e-06 0 4.21126
9.18908e-07 0 4.21125
-3.13436e-06 0 4.21123
-2.14468e-06 0 4.21132
1.75106e-06 0 4.21128
1.48145e-07 0 4.21127
-4.16453e-07 0 4.21128
-1.45138e-08 0 4.21128
5.45777e-08 0 4.21128
3.25383e-09 0 4.21128
-7.9629e-09 0 4.21128
-6.12324e-10 0 4.21128
1.98319e-09 0 4.21128
-1.9793e-09 0 4.21128
6.03222e-10 0 4.21128
7.97128e-09 0 4.21128
-3.23461e-09 0 4.21128
-5.46914e-08 0 4.21128
1.47024e-08 0 4.21128
4.16287e-07 0 4.21128
-1.48021e-07 0 4.21127
-1.75116e-06 0 4.21128
2.14471e-06 0 4.21132
3.13445e-06 0 4.21123
-9.18787e-07 0 4.21125
-1.05449e-06 0 4.21126
-7.38971e-06 0 4.21126
-6.89254e-05 0 4.21125
-0.000502696 0 4.21122
-0.00307584 0 4.21133
-0.0135455 0 4.21122
0.149313 0 4.12577
-0.393031 0 4.23808
-4.85383 0 4.13004
-5.22222 0 4.17579
4.79208 0 4.06969
-0.329624 0 3.94366
-1.75458 0 3.93326
1.4405 0 4.06406
-0.464281 0 4.16557
-0.0521991 0 4.23774
-0.076188 0 8.33791
-0.558415 0 0.948254
0.558415 0 -0.948254
0.076188 0 -8.33791
0.0521991 0 -4.23774
0.464281 0 -4.16557
-1.4405 0 -4.06406
1.75458 0 -3.93326
0.329624 0 -3.94366
-4.79208 0 -4.06969
5.22222 0 -4.17579
4.85383 0 -4.13004
0.393031 0 -4.23808
-0.149313 0 -4.12577
0.0135455 0 -4.21122
0.00307589 0 -4.21133
0.000502771 0 -4.21122
6.8314e-05 0 -4.21126
5.79266e-06 0 -4.21124
6.28818e-06 0 -4.21118
5.77634e-06 0 -4.21142
-3.48023e-05 0 -4.21149
-2.85964e-05 0 -4.21018
1.39716e-05 0 -4.2106
5.65486e-06 0 -4.21085
-5.07773e-06 0 -4.21071
-1.1677e-06 0 -4.21067
9.4251e-07 0 -4.21069
1.8172e-07 0 -4.2107
-1.49844e-07 0 -4.21069
-2.55977e-08 0 -4.21069
2.15785e-08 0 -4.21069
-2.16103e-08 0 -4.21069
2.56876e-08 0 -4.21069
1.49728e-07 0 -4.21069
-1.81615e-07 0 -4.2107
-9.42607e-07 0 -4.21069
1.16779e-06 0 -4.21067
5.07769e-06 0 -4.21071
-5.65485e-06 0 -4.21085
-1.39716e-05 0 -4.2106
2.85964e-05 0 -4.21018
3.48024e-05 0 -4.21149
-5.77614e-06 0 -4.21142
-6.28847e-06 0 -4.21118
-5.79286e-06 0 -4.21124
-6.8314e-05 0 -4.21126
-0.000502771 0 -4.21122
-0.00307589 0 -4.21133
-0.0135455 0 -4.21122
0.149313 0 -4.12577
-0.393031 0 -4.23808
-4.85383 0 -4.13004
-5.22222 0 -4.17579
4.79208 0 -4.06969
-0.329624 0 -3.94366
-1.75458 0 -3.93326
1.4405 0 -4.06406
-0.464281 0 -4.16557
-0.0521991 0 -4.23774
-0.076188 0 -8.33791
-0.558415 0 -0.948254
0.832395 0 -0.664789
-0.0687796 0 -4.09413
0.22059 0 -2.44921
0.593428 0 -3.45993
-1.47123 0 -3.85792
1.7379 0 -4.17946
0.3741 0 -4.45657
-4.77469 0 -4.83397
5.0949 0 -5.07815
5.02466 0 -5.21307
0.632417 0 -5.18713
-0.163722 0 -5.21488
0.00530738 0 -5.12865
0.0025497 0 -5.12596
0.000440565 0 -5.12579
-3.28006e-05 0 -5.12568
-5.54411e-06 0 -5.12546
2.63933e-05 0 -5.12529
-3.92459e-05 0 -5.12681
0.000301508 0 -5.12483
-0.00020167 0 -5.12018
-0.000433561 0 -5.11693
0.000138817 0 -5.1215
-2.05431e-05 0 -5.12089
-2.00951e-05 0 -5.11996
1.24618e-05 0 -5.12019
5.74717e-06 0 -5.12031
-6.21227e-07 0 -5.12024
1.14017e-07 0 -5.12022
1.83514e-07 0 -5.12022
-1.83559e-07 0 -5.12022
-1.1392e-07 0 -5.12022
6.21127e-07 0 -5.12024
-5.74708e-06 0 -5.12031
-1.24618e-05 0 -5.12019
2.00951e-05 0 -5.11996
2.05433e-05 0 -5.12089
-0.000138817 0 -5.1215
0.000433561 0 -5.11693
0.00020167 0 -5.12018
-0.000301508 0 -5.12483
3.92461e-05 0 -5.12681
-2.63936e-05 0 -5.12529
5.5438e-06 0 -5.12546
3.28006e-05 0 -5.12568
-0.000440565 0 -5.12579
-0.0025497 0 -5.12596
-0.00530738 0 -5.12865
0.163722 0 -5.21488
-0.632417 0 -5.18713
-5.02466 0 -5.21307
-5.0949 0 -5.07815
4.77469 0 -4.83397
-0.3741 0 -4.45657
-1.7379 0 -4.17946
1.47123 0 -3.85792
-0.593428 0 -3.45993
-0.22059 0 -2.44921
0.0687796 0 -4.09413
-0.832395 0 -0.664789
0.65848 0 2.84837
-0.014909 0 1.14957
0.000117401 0 4.86422
0.916886 0 4.13397
-1.39824 0 4.33828
1.70198 0 4.5814
0.489156 0 4.73287
-4.74863 0 4.75043
4.89456 0 4.77526
5.02114 0 4.74604
0.740714 0 4.63433
-0.130797 0 4.57028
-0.00500258 0 4.48418
0.00175183 0 4.48425
0.000187799 0 4.48421
-0.000127858 0 4.48418
-7.46366e-05 0 4.48543
0.00016904 0 4.48447
-0.00192392 0 4.48305
0.0373133 0 4.55964
-0.000503479 0 3.98399
-0.0354056 0 4.6017
0.00412964 0 4.5034
-0.000133709 0 4.50552
0.000463316 0 4.51135
0.000651684 0 4.50903
0.000444807 0 4.50633
0.000265005 0 4.50588
8.999e-05 0 4.5058
1.95807e-05 0 4.50582
-1.95807e-05 0 4.50582
-8.999e-05 0 4.5058
-0.000265005 0 4.50588
-0.000444807 0 4.50633
-0.000651684 0 4.50903
-0.000463316 0 4.51135
0.00013371 0 4.50552
-0.00412964 0 4.5034
0.0354056 0 4.6017
0.000503479 0 3.98399
-0.0373133 0 4.55964
0.00192392 0 4.48305
-0.00016904 0 4.48447
7.46366e-05 0 4.48543
0.000127858 0 4.48418
-0.000187798 0 4.48421
-0.00175183 0 4.48425
0.00500258 0 4.48418
0.130797 0 4.57028
-0.740714 0 4.63433
-5.02114 0 4.74604
-4.89456 0 4.77526
4.74863 0 4.75043
-0.489156 0 4.73287
-1.70198 0 4.5814
1.39824 0 4.33828
-0.916886 0 4.13397