# vtk DataFile Version 3.0
SiWiRVisFile
ASCII
DATASET UNSTRUCTURED_GRID
POINTS 1600 DOUBLE
79.1894 100 76.229
80.2987 100 76.3011
81.4115 100 76.2918
82.5225 100 76.2886
83.6319 100 76.2863
84.7464 100 76.2851
85.8671 100 76.2848
86.9903 100 76.2846
88.1132 100 76.2846
89.2357 100 76.2846
90.3582 100 76.2846
91.4807 100 76.2846
92.6031 100 76.2846
93.7256 100 76.2846
94.848 100 76.2846
95.9705 100 76.2846
97.093 100 76.2846
98.2154 100 76.2846
99.3379 100 76.2846
100.46 100 76.2846
101.583 100 76.2846
102.705 100 76.2846
103.828 100 76.2846
104.95 100 76.2846
106.073 100 76.2846
107.195 100 76.2846
108.318 100 76.2846
109.44 100 76.2846
110.563 100 76.2846
111.685 100 76.2846
112.807 100 76.2846
113.93 100 76.2846
115.052 100 76.2846
116.175 100 76.2846
117.297 100 76.2846
118.42 100 76.2846
119.542 100 76.2846
120.665 100 76.2846
121.787 100 76.2846
122.91 100 76.2846
124.032 100 76.2846
125.155 100 76.2846
126.277 100 76.2846
127.399 100 76.2846
128.522 100 76.2846
129.644 100 76.2846
130.767 100 76.2846
131.889 100 76.2846
133.012 100 76.2846
134.134 100 76.2846
135.257 100 76.2846
136.379 100 76.2846
137.502 100 76.2846
138.625 100 76.2848
139.746 100 76.2851
140.861 100 76.2863
141.97 100 76.2886
143.081 100 76.2918
144.194 100 76.3011
145.303 100 76.229
79.2614 100 77.3384
80.3608 100 77.4005
81.458 100 77.3914
82.556 100 77.3889
83.6481 100 77.3873
84.7494 100 77.3867
85.8669 100 77.3865
86.9902 100 77.3865
88.1132 100 77.3864
89.2357 100 77.3864
90.3582 100 77.3864
91.4807 100 77.3864
92.6031 100 77.3864
93.7256 100 77.3864
94.848 100 77.3864
95.9705 100 77.3864
97.093 100 77.3864
98.2154 100 77.3864
99.3379 100 77.3864
100.46 100 77.3864
101.583 100 77.3864
102.705 100 77.3864
103.828 100 77.3864
104.95 100 77.3864
106.073 100 77.3864
107.195 100 77.3864
108.318 100 77.3864
109.44 100 77.3864
110.563 100 77.3864
111.685 100 77.3864
112.807 100 77.3864
113.93 100 77.3864
115.052 100 77.3864
116.175 100 77.3864
117.297 100 77.3864
118.42 100 77.3864
119.542 100 77.3864
120.665 100 77.3864
121.787 100 77.3864
122.91 100 77.3864
124.032 100 77.3864
125.155 100 77.3864
126.277 100 77.3864
127.399 100 77.3864
128.522 100 77.3864
129.644 100 77.3864
130.767 100 77.3864
131.889 100 77.3864
133.012 100 77.3864
134.134 100 77.3864
135.257 100 77.3864
136.379 100 77.3864
137.502 100 77.3865
138.625 100 77.3865
139.743 100 77.3867
140.844 100 77.3873
141.936 100 77.3889
143.034 100 77.3914
144.132 100 77.4005
145.231 100 77.3384
79.2521 100 78.4511
80.3517 100 78.4976
81.45 100 78.4897
82.5506 100 78.4876
83.6453 100 78.4868
84.7498 100 78.4867
85.8683 100 78.4868
86.9909 100 78.487
88.1134 100 78.4869
89.2358 100 78.4869
90.3582 100 78.4869
91.4807 100 78.4869
92.6031 100 78.4869
93.7256 100 78.4869
94.848 100 78.4869
95.9705 100 78.4869
97.093 100 78.4869
98.2154 100 78.4869
99.3379 100 78.4869
100.46 100 78.4869
101.583 100 78.4869
102.705 100 78.4869
103.828 100 78.4869
104.95 100 78.4869
106.073 100 78.4869
107.195 100 78.4869
108.318 100 78.4869
109.44 100 78.4869
110.563 100 78.4869
111.685 100 78.4869
112.807 100 78.4869
113.93 100 78.4869
115.052 100 78.4869
116.175 100 78.4869
117.297 100 78.4869
118.42 100 78.4869
119.542 100 78.4869
120.665 100 78.4869
121.787 100 78.4869
122.91 100 78.4869
124.032 100 78.4869
125.155 100 78.4869
126.277 100 78.4869
127.399 100 78.4869
128.522 100 78.4869
129.644 100 78.4869
130.767 100 78.4869
131.889 100 78.4869
133.012 100 78.4869
134.134 100 78.4869
135.257 100 78.4869
136.379 100 78.4869
137.501 100 78.487
138.624 100 78.4868
139.743 100 78.4867
140.847 100 78.4868
141.942 100 78.4876
143.042 100 78.4897
144.141 100 78.4976
145.24 100 78.4511
79.2489 100 79.5621
80.3493 100 79.5957
81.448 100 79.5903
82.549 100 79.5887
83.6439 100 79.5882
84.7493 100 79.588
85.8684 100 79.5881
86.9908 100 79.588
88.1133 100 79.588
89.2357 100 79.588
90.3582 100 79.588
91.4807 100 79.588
92.6031 100 79.588
93.7256 100 79.588
94.848 100 79.588
95.9705 100 79.588
97.093 100 79.588
98.2154 100 79.588
99.3379 100 79.588
100.46 100 79.588
101.583 100 79.588
102.705 100 79.588
103.828 100 79.588
104.95 100 79.588
106.073 100 79.588
107.195 100 79.588
108.318 100 79.588
109.44 100 79.588
110.563 100 79.588
111.685 100 79.588
112.807 100 79.588
113.93 100 79.588
115.052 100 79.588
116.175 100 79.588
117.297 100 79.588
118.42 100 79.588
119.542 100 79.588
120.665 100 79.588
121.787 100 79.588
122.91 100 79.588
124.032 100 79.588
125.155 100 79.588
126.277 100 79.588
127.399 100 79.588
128.522 100 79.588
129.644 100 79.588
130.767 100 79.588
131.889 100 79.588
133.012 100 79.588
134.134 100 79.588
135.257 100 79.588
136.379 100 79.588
137.502 100 79.588
138.624 100 79.5881
139.743 100 79.588
140.848 100 79.5882
141.943 100 79.5887
143.044 100 79.5903
144.143 100 79.5957
145.243 100 79.5621
79.2466 100 80.6715
80.3477 100 80.6877
81.4471 100 80.6849
82.5485 100 80.6836
83.6433 100 80.683
84.749 100 80.6828
85.8684 100 80.6828
86.9908 100 80.6827
88.1133 100 80.6827
89.2357 100 80.6827
90.3582 100 80.6827
91.4807 100 80.6827
92.6031 100 80.6827
93.7256 100 80.6827
94.848 100 80.6827
95.9705 100 80.6827
97.093 100 80.6827
98.2154 100 80.6827
99.3379 100 80.6827
100.46 100 80.6827
101.583 100 80.6827
102.705 100 80.6827
103.828 100 80.6827
104.95 100 80.6827
106.073 100 80.6827
107.195 100 80.6827
108.318 100 80.6827
109.44 100 80.6827
110.563 100 80.6827
111.685 100 80.6827
112.807 100 80.6827
113.93 100 80.6827
115.052 100 80.6827
116.175 100 80.6827
117.297 100 80.6827
118.42 100 80.6827
119.542 100 80.6827
120.665 100 80.6827
121.787 100 80.6827
122.91 100 80.6827
124.032 100 80.6827
125.155 100 80.6827
126.277 100 80.6827
127.399 100 80.6827
128.522 100 80.6827
129.644 100 80.6827
130.767 100 80.6827
131.889 100 80.6827
133.012 100 80.6827
134.134 100 80.6827
135.257 100 80.6827
136.379 100 80.6827
137.502 100 80.6827
138.624 100 80.6828
139.743 100 80.6828
140.849 100 80.683
141.944 100 80.6836
143.045 100 80.6849
144.145 100 80.6877
145.246 100 80.6715
79.2454 100 81.786
80.347 100 81.7891
81.447 100 81.7895
82.5484 100 81.7889
83.6431 100 81.7886
84.749 100 81.7887
85.8686 100 81.7887
86.9909 100 81.7887
88.1133 100 81.7887
89.2357 100 81.7887
90.3582 100 81.7887
91.4807 100 81.7887
92.6031 100 81.7887
93.7256 100 81.7887
94.848 100 81.7887
95.9705 100 81.7887
97.093 100 81.7887
98.2154 100 81.7887
99.3379 100 81.7887
100.46 100 81.7887
101.583 100 81.7887
102.705 100 81.7887
103.828 100 81.7887
104.95 100 81.7887
106.073 100 81.7887
107.195 100 81.7887
108.318 100 81.7887
109.44 100 81.7887
110.563 100 81.7887
111.685 100 81.7887
112.807 100 81.7887
113.93 100 81.7887
115.052 100 81.7887
116.175 100 81.7887
117.297 100 81.7887
118.42 100 81.7887
119.542 100 81.7887
120.665 100 81.7887
121.787 100 81.7887
122.91 100 81.7887
124.032 100 81.7887
125.155 100 81.7887
126.277 100 81.7887
127.399 100 81.7887
128.522 100 81.7887
129.644 100 81.7887
130.767 100 81.7887
131.889 100 81.7887
133.012 100 81.7887
134.134 100 81.7887
135.257 100 81.7887
136.379 100 81.7887
137.502 100 81.7887
138.624 100 81.7887
139.743 100 81.7887
140.849 100 81.7886
141.944 100 81.7889
143.045 100 81.7895
144.145 100 81.7891
145.247 100 81.786
79.2452 100 82.9068
80.3468 100 82.9066
81.4472 100 82.9079
82.5484 100 82.908
83.6431 100 82.9081
84.749 100 82.9082
85.8686 100 82.9083
86.9909 100 82.9083
88.1133 100 82.9083
89.2357 100 82.9083
90.3582 100 82.9083
91.4807 100 82.9083
92.6031 100 82.9083
93.7256 100 82.9083
94.848 100 82.9083
95.9705 100 82.9083
97.093 100 82.9083
98.2154 100 82.9083
99.3379 100 82.9083
100.46 100 82.9083
101.583 100 82.9083
102.705 100 82.9083
103.828 100 82.9083
104.95 100 82.9083
106.073 100 82.9083
107.195 100 82.9083
108.318 100 82.9083
109.44 100 82.9083
110.563 100 82.9083
111.685 100 82.9083
112.807 100 82.9083
113.93 100 82.9083
115.052 100 82.9083
116.175 100 82.9083
117.297 100 82.9083
118.42 100 82.9083
119.542 100 82.9083
120.665 100 82.9083
121.787 100 82.9083
122.91 100 82.9083
124.032 100 82.9083
125.155 100 82.9083
126.277 100 82.9083
127.399 100 82.9083
128.522 100 82.9083
129.644 100 82.9083
130.767 100 82.9083
131.889 100 82.9083
133.012 100 82.9083
134.134 100 82.9083
135.257 100 82.9083
136.379 100 82.9083
137.502 100 82.9083
138.624 100 82.9083
139.743 100 82.9082
140.849 100 82.9081
141.944 100 82.908
143.045 100 82.9079
144.146 100 82.9066
145.247 100 82.9068
79.2449 100 84.03
80.3468 100 84.0299
81.4473 100 84.0306
82.5484 100 84.0304
83.6431 100 84.0305
84.7491 100 84.0305
85.8687 100 84.0305
86.9909 100 84.0305
88.1133 100 84.0305
89.2357 100 84.0305
90.3582 100 84.0305
91.4807 100 84.0305
92.6031 100 84.0305
93.7256 100 84.0305
94.848 100 84.0305
95.9705 100 84.0305
97.093 100 84.0305
98.2154 100 84.0305
99.3379 100 84.0305
100.46 100 84.0305
101.583 100 84.0305
102.705 100 84.0305
103.828 100 84.0305
104.95 100 84.0305
106.073 100 84.0305
107.195 100 84.0305
108.318 100 84.0305
109.44 100 84.0305
110.563 100 84.0305
111.685 100 84.0305
112.807 100 84.0305
113.93 100 84.0305
115.052 100 84.0305
116.175 100 84.0305
117.297 100 84.0305
118.42 100 84.0305
119.542 100 84.0305
120.665 100 84.0305
121.787 100 84.0305
122.91 100 84.0305
124.032 100 84.0305
125.155 100 84.0305
126.277 100 84.0305
127.399 100 84.0305
128.522 100 84.0305
129.644 100 84.0305
130.767 100 84.0305
131.889 100 84.0305
133.012 100 84.0305
134.134 100 84.0305
135.257 100 84.0305
136.379 100 84.0305
137.502 100 84.0305
138.624 100 84.0305
139.743 100 84.0305
140.849 100 84.0305
141.944 100 84.0304
143.045 100 84.0306
144.146 100 84.0299
145.247 100 84.03
79.2449 100 85.1528
80.3468 100 85.1528
81.4473 100 85.1531
82.5484 100 85.1529
83.6431 100 85.1529
84.7491 100 85.1529
85.8687 100 85.1529
86.9909 100 85.1529
88.1133 100 85.1529
89.2357 100 85.1529
90.3582 100 85.1529
91.4807 100 85.1529
92.6031 100 85.1529
93.7256 100 85.1529
94.848 100 85.1529
95.9705 100 85.1529
97.093 100 85.1529
98.2154 100 85.1529
99.3379 100 85.1529
100.46 100 85.1529
101.583 100 85.1529
102.705 100 85.1529
[...]
POINT_DATA 1600
SCALARS mass double
LOOKUP_TABLE default
1
1
1
1
1
1
1
1
1
1
1
1
1
1
1
1
1
1
1
1
1
1
1
1
1
1
1
1
1
1
1
1
1
1
1
1
1
1
1
1
1
1
1
1
1
1
1
1
1
1
1
1
1
1
1
1
1
1
1
1
1
1
1
1
1
1
1
1
1
1
1
1
1
1
1
1
1
1
1
1
1
1
1
1
1
1
1
1
1
1
1
1
1
1
1
1
1
1
1
1
1
1
1
1
1
1
1
1
1
1
1
1
1
1
1
1
1
1
1
1
1
1
1
1
1
1
1
1
1
1
1
1
1
1
1
1
1
1
1
1
1
1
1
1
1
1
1
1
1
1
1
1
1
1
1
1
1
1
1
1
1
1
1
1
1
1
1
1
1
1
1
1
1
1
1
1
1
1
1
1
1
1
1
1
1
1
1
1
1
1
1
1
1
1
1
1
1
1
1
1
1
1
1
1
1
1
1
1
1
1
1
1
1
1
1
1
1
1
1
1
1
1
1
1
1
1
1
1
1
1
1
1
1
1
1
1
1
1
1
1
1
1
1
1
1
1
1
1
1
1
1
1
1
1
1
1
1
1
1
1
1
1
1
1
1
1
1
1
1
1
1
1
1
1
1
1
1
1
1
1
1
1
1
1
1
1
1
1
1
1
1
1
1
1
1
1
1
1
1
1
1
1
1
1
1
1
1
1
1
1
1
1
1
1
1
1
1
1
1
1
1
1
1
1
1
1
1
1
1
1
1
1
1
1
1
1
1
1
1
1
1
1
1
1
1
1
1
1
1
1
1
1
1
1
1
1
1
1
1
1
1
1
1
1
1
1
1
1
1
1
1
1
1
1
1
1
1
1
1
1
1
1
1
1
1
1
1
1
1
1
1
1
1
1
1
1
1
1
1
1
1
1
1
1
1
1
1
1
1
1
1
1
1
1
1
1
1
1
1
1
1
1
1
1
1
1
1
1
1
1
1
1
1
1
1
1
1
1
1
1
1
1
1
1
1
1
1
1
1
1
1
1
1
1
1
1
1
1
1
1
1
1
1
1
1
1
1
1
1
1
1
1
1
1
1
1
1
1
1
1
1
1
1
1
1
1
1
1
1
1
1
1
1
1
1
1
1
1
1
1
1
1
1
1
1
1
1
1
1
1
1
1
1
1
1
1
1
1
1
1
1
1
1
1
1
1
1
1
1
1
1
1
1
1
1
1
1
1
1
1
1
1
1
1
1
1
1
1
1
1
1
1
1
1
1
1
1
1
1
1
1
1
1
1
1
1
1
1
1
1
1
1
1
1
1
1
1
1
1
1
1
1
1
1
1
1
1
1
1
1
1
1
1
1
1
1
1
1
1
1
1
1
1
1
1
1
1
1
1
1
1
1
1
1
1
1
1
1
1
1
1
1
1
1
1
1
1
1
1
1
1
1
1
1
1
1
1
1
1
1
1
1
1
1
1
1
1
1
1
1
1
1
1
1
1
1
1
1
1
1
1
1
1
1
1
1
1
1
1
1
1
1
1
1
1
1
1
1
1
1
1
1
1
1
1
1
1
1
1
1
1
1
1
1
1
1
1
1
1
1
1
1
1
1
1
1
1
1
1
1
1
1
1
1
1
1
1
1
1
1
1
1
1
1
1
1
1
1
1
1
1
1
1
1
1
1
1
1
1
1
1
1
1
1
1
1
1
1
1
1
1
1
1
1
1
1
1
1
1
1
1
1
1
1
1
1
1
1
1
1
1
1
1
1
1
1
1
1
1
1
1
1
1
1
1
1
1
1
1
1
1
1
1
1
1
1
1
1
1
1
1
1
1
1
1
1
1
1
1
1
1
1
1
1
1
1
1
1
1
1
1
1
1
1
1
1
1
1
1
1
1
1
1
1
1
1
1
1
1
1
1
1
1
1
1
1
1
1
1
1
1
1
1
1
1
1
1
1
1
1
1
1
1
1
1
1
1
1
1
1
1
1
1
1
1
1
1
1
1
1
1
1
1
1
1
1
1
1
1
1
1
1
1
1
1
1
1
1
1
1
1
1
1
1
1
1
1
1
1
1
1
1
1
1
1
1
1
1
1
1
1
1
1
1
1
1
1
1
1
1
1
1
1
1
1
1
1
1
1
1
1
1
1
1
1
1
1
1
1
1
1
1
1
1
1
1
1
1
1
1
1
1
1
1
1
1
1
1
1
1
1
1
1
1
1
1
1
1
1
1
1
1
1
1
1
1
1
1
1
1
1
1
1
1
1
1
1
1
1
1
1
1
1
1
1
1
1
1
1
1
1
1
1
1
1
1
1
1
1
1
1
1
1
1
1
1
1
1
1
1
1
1
1
1
1
1
1
1
1
1
1
1
1
1
1
1
1
1
1
1
1
1
1
1
1
1
1
1
1
1
1
1
1
1
1
1
1
1
1
1
1
1
1
1
1
1
1
1
1
1
1
1
1
1
1
1
1
1
1
1
1
1
1
1
1
1
1
1
1
1
1
1
1
1
1
1
1
1
1
1
1
1
1
1
1
1
1
1
1
1
1
1
1
1
1
1
1
1
1
1
1
1
1
1
1
1
1
1
1
1
1
1
1
1
1
1
1
1
1
1
1
1
1
1
1
1
1
1
1
1
1
1
1
1
1
1
1
1
1
1
1
1
1
1
1
1
1
1
1
1
1
1
1
1
1
1
1
1
1
1
1
1
1
1
1
1
1
1
1
1
1
1
1
1
1
1
1
1
1
1
1
1
1
1
1
1
1
1
1
1
1
1
1
1
1
1
1
1
1
1
1
1
1
1
1
1
1
1
1
1
1
1
1
1
1
1
1
1
1
1
1
1
1
1
1
1
1
1
1
1
1
1
1
1
1
1
1
1
1
1
1
1
1
1
1
1
1
1
1
1
1
1
1
1
1
1
1
1
1
1
1
1
1
1
1
1
1
1
1
1
1
1
1
1
1
1
1
1
1
1
1
1
1
1
1
1
1
1
1
1
1
1
1
1
1
1
1
1
1
1
1
1
1
1
1
1
1
1
1
1
1
1
1
1
1
1
1
1
1
1
1
1
1
1
1
1
1
1
1
1
1
1
1
1
1
1
1
1
1
1
1
1
1
1
1
1
1
1
1
1
1
1
1
1
1
1
1
1
1
1
1
1
1
1
1
1
1
1
1
1
1
1
1
1
1
1
1
1
1
1
1
1
1
1
1
1
1
1
1
1
1
1
1
1
1
1
1
1
1
1
1
1
1
1
1
1
1
1
1
1
1
1
1
1
1
1
1
1
1
1
1
1
1
1
1
1
1
1
1
1
1
1
1
1
1
1
1
1
1
1
1
1
1
1
1
1
1
1
1
1
1
1
1
1
1
1
1
1
1
1
1
1
1
1
1
1
1
1
1
1
1
1
1
1
1
1
1
1
1
1
1
1
1
1
1
1
1
1
1
1
1
1
1
1
1
1
1
1
1
1
1
1
1
1
1
1
1
1
1
1
1
1
1
1
1
1
1
1
1
1
1
1
1
1
1
1
1
1
1
1
1
1
1
1
1
1
1
1
1
1
1
1
1
1
1
1
1
1
1
1
1
1
1
1
1
1
1
1
1
1
1
1
1
1
1
1
1
1
1
1
VECTORS force double
-0.930545 0 -0.930545
-1.28711 0 1.12107
-1.57878 0 0.0324854
-1.24765 0 0.221314
1.33858 0 0.272593
1.71536 0 0.177056
0.485997 0 -0.134237
-0.283575 0 -0.0955323
-0.0860708 0 -0.200507
-0.0148587 0 -0.19881
-0.00156418 0 -0.199419
-5.83683e-05 0 -0.199482
6.50723e-06 0 -0.199458
8.39176e-07 0 -0.199453
3.74368e-08 0 -0.199453
-1.6157e-08 0 -0.199453
2.30475e-10 0 -0.199453
-3.78797e-12 0 -0.199453
1.86517e-14 0 -0.199453
1.11022e-16 0 -0.199453
0 0 -0.199453
1.11022e-16 0 -0.199453
0 0 -0.199453
0 0 -0.199453
-1.80411e-14 0 -0.199453
3.9666e-12 0 -0.199453
-7.92733e-12 0 -0.199453
7.9452e-12 0 -0.199453
-7.94553e-12 0 -0.199453
7.92699e-12 0 -0.199453
-3.96649e-12 0 -0.199453
1.86517e-14 0 -0.199453
1.11022e-16 0 -0.199453
-1.82077e-14 0 -0.199453
3.9666e-12 0 -0.199453
-7.92688e-12 0 -0.199453
7.9452e-12 0 -0.199453
-7.94553e-12 0 -0.199453
7.92699e-12 0 -0.199453
-3.96649e-12 0 -0.199453
1.86517e-14 0 -0.199453
1.11022e-16 0 -0.199453
-2.01172e-13 0 -0.199453
-2.19593e-10 0 -0.199453
1.65158e-08 0 -0.199453
-3.78435e-08 0 -0.199453
-8.39089e-07 0 -0.199453
-6.50725e-06 0 -0.199458
5.83682e-05 0 -0.199482
0.00156418 0 -0.199419
0.0148587 0 -0.19881
0.0860708 0 -0.200507
0.283575 0 -0.0955323
-0.485997 0 -0.134237
-1.71536 0 0.177056
-1.33858 0 0.272593
1.24765 0 0.221314
1.57878 0 0.0324854
1.28711 0 1.12107
0.930545 0 -0.930545
1.12107 0 -1.28711
0.740276 0 0.740276
1.75211 0 0.0331265
-1.70868 0 0.270418
4.4653 0 0.403341
5.69661 0 0.292946
1.21511 0 0.34698
-0.469089 0 0.278295
-0.121313 0 0.310823
-0.0148723 0 0.308625
-0.00267009 0 0.308948
-0.000904271 0 0.308955
-0.000144044 0 0.308941
-1.04617e-05 0 0.308938
-1.78116e-06 0 0.308938
-9.70786e-07 0 0.308954
-6.1411e-09 0 0.308953
2.01038e-11 0 0.308953
1.59763e-13 0 0.308953
-1.11022e-16 0 0.308953
-1.09552e-16 0 0.308953
-1.11022e-16 0 0.308953
-1.09552e-16 0 0.308953
-1.09552e-16 0 0.308953
-1.59706e-13 0 0.308953
3.8614e-12 0 0.308953
-7.57766e-12 0 0.308953
7.73741e-12 0 0.308953
-7.73753e-12 0 0.308953
7.57804e-12 0 0.308953
-3.86191e-12 0 0.308953
1.59763e-13 0 0.308953
-1.11022e-16 0 0.308953
-1.59926e-13 0 0.308953
3.8614e-12 0 0.308953
-7.57805e-12 0 0.308953
7.73741e-12 0 0.308953
-7.73753e-12 0 0.308953
7.57804e-12 0 0.308953
-3.86191e-12 0 0.308953
1.59763e-13 0 0.308953
-1.11022e-16 0 0.308953
-2.42233e-11 0 0.308953
6.12799e-09 0 0.308953
9.70567e-07 0 0.308954
1.78134e-06 0 0.308938
1.04619e-05 0 0.308938
0.000144043 0 0.308941
0.000904271 0 0.308955
0.00267009 0 0.308948
0.0148723 0 0.308625
0.121313 0 0.310823
0.469089 0 0.278295
-1.21511 0 0.34698
-5.69661 0 0.292946
-4.4653 0 0.403341
1.70868 0 0.270418
-1.75211 0 0.0331265
-0.740276 0 0.740276
-1.12107 0 -1.28711
0.0324854 0 -1.57878
0.0331265 0 1.75211
0.778606 0 0.778606
-2.68757 0 0.912997
4.01463 0 0.702875
4.5558 0 0.518088
0.803662 0 0.378553
-0.380889 0 0.282529
-0.0238945 0 0.259601
0.0216146 0 0.259131
0.00766934 0 0.258809
0.0011591 0 0.259232
0.000131939 0 0.259326
1.03756e-05 0 0.259328
-1.88896e-05 0 0.25933
2.25513e-05 0 0.259298
-9.85652e-09 0 0.259298
-6.9386e-10 0 0.259298
1.297e-12 0 0.259298
3.88578e-16 0 0.259298
2.63678e-16 0 0.259298
3.88578e-16 0 0.259298
2.63678e-16 0 0.259298
2.63678e-16 0 0.259298
-2.20379e-14 0 0.259298
3.86215e-12 0 0.259298
-7.714e-12 0 0.259298
7.73638e-12 0 0.259298
-7.73709e-12 0 0.259298
7.71462e-12 0 0.259298
-3.8623e-12 0 0.259298
2.158e-14 0 0.259298
3.88578e-16 0 0.259298
-2.23849e-14 0 0.259298
3.86215e-12 0 0.259298
-7.71433e-12 0 0.259298
7.73727e-12 0 0.259298
-7.73709e-12 0 0.259298
7.71462e-12 0 0.259298
-3.8623e-12 0 0.259298
2.158e-14 0 0.259298
-1.31128e-12 0 0.259298
6.97927e-10 0 0.259298
9.88657e-09 0 0.259298
-2.25511e-05 0 0.259298
1.88893e-05 0 0.25933
-1.03753e-05 0 0.259328
-0.000131939 0 0.259326
-0.0011591 0 0.259232
-0.00766933 0 0.258809
-0.0216146 0 0.259131
0.0238945 0 0.259601
0.380889 0 0.282529
-0.803662 0 0.378553
-4.5558 0 0.518088
-4.01463 0 0.702875
2.68757 0 0.912997
-0.778606 0 0.778606
-0.0331265 0 1.75211
-0.0324854 0 -1.57878
0.221314 0 -1.24765
0.270418 0 -1.70868
0.912997 0 -2.68757
-2.69909 0 -2.69909
4.26763 0 -2.8526
4.43057 0 -2.85267
0.707481 0 -2.75137
-0.151237 0 -2.66731
-0.0167144 0 -2.57154
0.00129843 0 -2.56779
-0.000684891 0 -2.56785
-0.000872124 0 -2.56874
-0.000227363 0 -2.56896
-5.74351e-05 0 -2.56896
-1.32608e-06 0 -2.56896
-2.1654e-07 0 -2.56894
-3.16625e-09 0 -2.56894
8.30108e-12 0 -2.56894
2.44249e-14 0 -2.56894
-7.21645e-16 0 -2.56894
-4.44089e-16 0 -2.56894
-7.21645e-16 0 -2.56894
-4.44089e-16 0 -2.56894
-4.44089e-16 0 -2.56894
-2.40363e-14 0 -2.56894
3.86091e-12 0 -2.56894
-7.70789e-12 0 -2.56894
7.73248e-12 0 -2.56894
-7.73187e-12 0 -2.56894
7.70806e-12 0 -2.56894
-3.86075e-12 0 -2.56894
2.44249e-14 0 -2.56894
-7.21645e-16 0 -2.56894
-2.53131e-14 0 -2.56894
3.86091e-12 0 -2.56894
-7.70833e-12 0 -2.56894
7.73248e-12 0 -2.56894
-7.73187e-12 0 -2.56894
7.70806e-12 0 -2.56894
-3.86075e-12 0 -2.56894
2.44249e-14 0 -2.56894
-7.21645e-16 0 -2.56894
-1.21219e-11 0 -2.56894
3.11576e-09 0 -2.56894
2.16563e-07 0 -2.56894
1.32635e-06 0 -2.56896
5.74343e-05 0 -2.56896
0.000227364 0 -2.56896
0.000872123 0 -2.56874
0.000684892 0 -2.56785
-0.00129843 0 -2.56779
0.0167144 0 -2.57154
0.151237 0 -2.66731
-0.707481 0 -2.75137
-4.43057 0 -2.85267
-4.26763 0 -2.8526
2.69909 0 -2.69909
-0.912997 0 -2.68757
-0.270418 0 -1.70868
-0.221314 0 -1.24765
0.272593 0 1.33858
0.403341 0 4.4653
0.702875 0 4.01463
-2.8526 0 4.26763
4.40116 0 4.40116
4.43071 0 4.50052
0.60867 0 4.48967
-0.166122 0 4.5081
0.000366791 0 4.40715
0.00169665 0 4.40206
0.000123118 0 4.40204
7.56073e-05 0 4.40256
2.11471e-05 0 4.40267
3.05767e-06 0 4.40266
2.19589e-07 0 4.40266
1.47941e-08 0 4.40266
1.59815e-10 0 4.40266
-2.79166e-13 0 4.40266
3.07393e-14 0 4.40266
-2.77556e-16 0 4.40266
5.41234e-16 0 4.40266
-2.77556e-16 0 4.40266
5.41234e-16 0 4.40266
-3.46945e-16 0 4.40266
-2.40363e-14 0 4.40266
3.86179e-12 0 4.40266
-7.71166e-12 0 4.40266
7.73513e-12 0 4.40266
-7.73653e-12 0 4.40266
7.71076e-12 0 4.40266
-3.86297e-12 0 4.40266
2.36339e-14 0 4.40266
-2.77556e-16 0 4.40266
-2.38282e-14 0 4.40266
3.86179e-12 0 4.40266
-7.71144e-12 0 4.40266
7.73513e-12 0 4.40266
-7.73653e-12 0 4.40266
7.71076e-12 0 4.40266
-3.86297e-12 0 4.40266
2.36339e-14 0 4.40266
-7.32747e-15 0 4.40266
-3.51748e-12 0 4.40266
-1.47716e-10 0 4.40266
-1.45472e-08 0 4.40266
-2.19881e-07 0 4.40266
-3.05756e-06 0 4.40266
-2.11469e-05 0 4.40267
-7.56077e-05 0 4.40256
-0.000123118 0 4.40204
-0.00169665 0 4.40206
-0.000366791 0 4.40715
0.166122 0 4.5081
-0.60867 0 4.48967
-4.43071 0 4.50052
-4.40116 0 4.40116
2.8526 0 4.26763
-0.702875 0 4.01463
-0.403341 0 4.4653
-0.272593 0 1.33858
0.177056 0 1.71536
0.292946 0 5.69661
0.518088 0 4.5558
-2.85267 0 4.43057
4.50052 0 4.43071
4.15003 0 4.15003
0.369563 0 4.07049
-0.140816 0 3.96863
0.0112063 0 4.05133
0.00154921 0 4.05062
0.000150878 0 4.05076
1.19335e-05 0 4.05079
5.53197e-07 0 4.05078
-2.54914e-08 0 4.05078
-6.1577e-09 0 4.05078
-9.03307e-11 0 4.05078
9.64961e-12 0 4.05078
-3.86435e-12 0 4.05078
1.90958e-14 0 4.05078
1.11022e-16 0 4.05078
4.44089e-16 0 4.05078
1.11022e-16 0 4.05078
4.44089e-16 0 4.05078
4.44089e-16 0 4.05078
-1.80411e-14 0 4.05078
3.8729e-12 0 4.05078
-7.73903e-12 0 4.05078
7.75691e-12 0 4.05078
-7.7568e-12 0 4.05078
7.73825e-12 0 4.05078
-3.87146e-12 0 4.05078
1.90958e-14 0 4.05078
1.11022e-16 0 4.05078
-1.82077e-14 0 4.05078
3.8729e-12 0 4.05078
-7.73903e-12 0 4.05078
7.75691e-12 0 4.05078
-7.7568e-12 0 4.05078
7.73825e-12 0 4.05078
-3.87146e-12 0 4.05078
1.90958e-14 0 4.05078
1.11022e-16 0 4.05078
-2.62013e-14 0 4.05078
1.9722e-12 0 4.05078
7.09461e-11 0 4.05078
5.59859e-09 0 4.05078
2.54681e-08 0 4.05078
-5.52258e-07 0 4.05078
-1.19338e-05 0 4.05079
-0.000150878 0 4.05076
-0.00154921 0 4.05062
-0.0112063 0 4.05133
0.140816 0 3.96863
-0.369563 0 4.07049
-4.15003 0 4.15003
-4.50052 0 4.43071
2.85267 0 4.43057
-0.518088 0 4.5558
-0.292946 0 5.69661
-0.177056 0 1.71536
-0.134237 0 0.485996
0.346981 0 1.21512
0.378553 0 0.803641
-2.75137 0 0.707517
4.48967 0 0.608667
4.07049 0 0.369563
0.345673 0 0.345673
0.050754 0 0.351013
0.011535 0 0.349954
0.00159448 0 0.349862
0.000121416 0 0.34978
9.71371e-06 0 0.349783
4.99147e-07 0 0.349782
1.77595e-08 0 0.349783
2.19419e-10 0 0.349783
-9.66927e-12 0 0.349783
7.87514e-12 0 0.349783
-3.8779e-12 0 0.349783
1.85422e-14 0 0.349783
-1.11022e-16 0 0.349783
7.78627e-16 0 0.349783
-1.11022e-16 0 0.349783
7.78627e-16 0 0.349783
-1.09552e-16 0 0.349783
-1.80411e-14 0 0.349783
3.87783e-12 0 0.349783
-7.75086e-12 0 0.349783
7.76983e-12 0 0.349783
-7.76951e-12 0 0.349783
7.75168e-12 0 0.349783
-3.8779e-12 0 0.349783
1.85422e-14 0 0.349783
-1.11022e-16 0 0.349783
-1.73735e-14 0 0.349783
3.87783e-12 0 0.349783
-7.75124e-12 0 0.349783
7.76894e-12 0 0.349783
-7.76951e-12 0 0.349783
7.75168e-12 0 0.349783
-3.8779e-12 0 0.349783
1.85422e-14 0 0.349783
-1.11022e-16 0 0.349783
-1.73735e-14 0 0.349783
3.75305e-12 0 0.349783
-7.10776e-12 0 0.349783
1.02747e-10 0 0.349783
-1.80121e-08 0 0.349783
-4.99387e-07 0 0.349782
-9.71366e-06 0 0.349783
-0.000121415 0 0.34978
-0.00159448 0 0.349862
-0.011535 0 0.349954
-0.050754 0 0.351013
-0.345673 0 0.345673
-4.07049 0 0.369563
-4.48967 0 0.608667
2.75137 0 0.707517
-0.378553 0 0.803641
-0.346981 0 1.21512
0.134237 0 0.485996
-0.0955369 0 -0.283582
0.278289 0 -0.468947
0.282529 0 -0.381001
-2.66729 0 -0.150994
4.50809 0 -0.166142
3.96863 0 -0.140817
0.351013 0 0.0507535
0.0525598 0 0.0525593
0.0115091 0 0.0522742
0.00154812 0 0.0523362
0.000148649 0 0.0523876
1.01764e-05 0 0.0523858
5.16827e-07 0 0.0523857
2.02011e-08 0 0.0523857
3.07762e-10 0 0.0523857
-9.65883e-12 0 0.0523857
7.75424e-12 0 0.0523857
-3.87901e-12 0 0.0523857
1.77636e-14 0 0.0523857
-3.33067e-16 0 0.0523857
0 0 0.0523857
-3.33067e-16 0 0.0523857
0 0 0.0523857
0 0 0.0523857
-1.80411e-14 0 0.0523857
3.87912e-12 0 0.0523857
-7.75369e-12 0 0.0523857
7.77289e-12 0 0.0523857
-7.77234e-12 0 0.0523857
7.75424e-12 0 0.0523857
-3.87901e-12 0 0.0523857
1.77636e-14 0 0.0523857
-3.33067e-16 0 0.0523857
-1.86517e-14 0 0.0523857
3.87912e-12 0 0.0523857
-7.75413e-12 0 0.0523857
7.77289e-12 0 0.0523857
-7.77234e-12 0 0.0523857
7.75424e-12 0 0.0523857
-3.87901e-12 0 0.0523857
1.77636e-14 0 0.0523857
-3.33067e-16 0 0.0523857
-1.86517e-14 0 0.0523857
3.87912e-12 0 0.0523857
-7.75413e-12 0 0.0523857
1.15287e-10 0 0.0523857
-2.0737e-08 0 0.0523857
-5.16892e-07 0 0.0523857
-1.01765e-05 0 0.0523858
-0.000148649 0 0.0523876
-0.00154812 0 0.0523362
-0.0115091 0 0.0522742
-0.0525598 0 0.0525593
-0.351013 0 0.0507535
-3.96863 0 -0.140817
-4.50809 0 -0.166142
2.66729 0 -0.150994
-0.282529 0 -0.381001
-0.278289 0 -0.468947
0.0955369 0 -0.283582
-0.200537 0 -0.0860125
0.310831 0 -0.120409
0.259501 0 -0.0250662
-2.57129 0 -0.0158255
4.40704 0 0.000292335
4.05133 0 0.0111944
0.349955 0 0.0115253
0.0522747 0 0.0114989
0.0115094 0 0.0114993
0.00154489 0 0.011501
0.000146306 0 0.011502
1.00956e-05 0 0.011502
5.1817e-07 0 0.011502
2.01691e-08 0 0.011502
2.99366e-10 0 0.011502
-9.64173e-12 0 0.011502
7.75523e-12 0 0.011502
-3.88101e-12 0 0.011502
1.89863e-14 0 0.011502
3.33067e-16 0 0.011502
3.34537e-16 0 0.011502
3.33067e-16 0 0.011502
3.34537e-16 0 0.011502
3.34537e-16 0 0.011502
-1.80411e-14 0 0.011502
3.8805e-12 0 0.011502
-7.7553e-12 0 0.011502
7.77338e-12 0 0.011502
-7.77395e-12 0 0.011502
7.75523e-12 0 0.011502
-3.88101e-12 0 0.011502
1.89863e-14 0 0.011502
3.33067e-16 0 0.011502
-1.78176e-14 0 0.011502
3.8805e-12 0 0.011502
-7.7548e-12 0 0.011502
7.77338e-12 0 0.011502
-7.77395e-12 0 0.011502
7.75523e-12 0 0.011502
-3.88101e-12 0 0.011502
1.89863e-14 0 0.011502
3.33067e-16 0 0.011502
-1.78176e-14 0 0.011502
3.8805e-12 0 0.011502
-7.7548e-12 0 0.011502
1.17162e-10 0 0.011502
-2.06879e-08 0 0.011502
-5.18306e-07 0 0.011502
-1.00957e-05 0 0.011502
-0.000146306 0 0.011502
-0.00154489 0 0.011501
-0.0115094 0 0.0114993
-0.0522747 0 0.0114989
-0.349955 0 0.0115253
-4.05133 0 0.0111944
-4.40704 0 0.000292335
2.57129 0 -0.0158255
-0.259501 0 -0.0250662
-0.310831 0 -0.120409
0.200537 0 -0.0860125
-0.198776 0 -0.0132946
0.308624 0 -0.0122019
0.258619 0 0.0139499
-2.56666 0 0.00195531
4.40143 0 0.00157413
4.05061 0 0.00139834
0.349859 0 0.00147306
0.0523386 0 0.00139947
0.0115112 0 0.00139858
0.0015448 0 0.00139854
0.000146268 0 0.00139853
1.00983e-05 0 0.00139853
5.18298e-07 0 0.00139853
2.01641e-08 0 0.00139853
2.99465e-10 0 0.00139853
-9.64107e-12 0 0.00139853
7.7538e-12 0 0.00139853
-3.88212e-12 0 0.00139853
1.82077e-14 0 0.00139853
-7.77156e-16 0 0.00139853
-4.44089e-16 0 0.00139853
-7.77156e-16 0 0.00139853
-4.44089e-16 0 0.00139853
-4.44089e-16 0 0.00139853
-1.80411e-14 0 0.00139853
3.88134e-12 0 0.00139853
-7.75413e-12 0 0.00139853
7.77245e-12 0 0.00139853
-7.77278e-12 0 0.00139853
7.7538e-12 0 0.00139853
-3.88212e-12 0 0.00139853
1.82077e-14 0 0.00139853
-7.77156e-16 0 0.00139853
-1.90958e-14 0 0.00139853
3.88134e-12 0 0.00139853
-7.75413e-12 0 0.00139853
7.77245e-12 0 0.00139853
-7.77278e-12 0 0.00139853
7.7538e-12 0 0.00139853
-3.88212e-12 0 0.00139853
1.82077e-14 0 0.00139853
-7.77156e-16 0 0.00139853
-1.90958e-14 0 0.00139853
3.88134e-12 0 0.00139853
-7.75413e-12 0 0.00139853
1.17197e-10 0 0.00139853
-2.06908e-08 0 0.00139853
-5.18446e-07 0 0.00139853
-1.00983e-05 0 0.00139853
-0.000146268 0 0.00139853
-0.0015448 0 0.00139854
-0.0115112 0 0.00139858
-0.0523386 0 0.00139947
-0.349859 0 0.00147306
-4.05061 0 0.00139834
-4.40143 0 0.00157413
2.56666 0 0.00195531
-0.258619 0 0.0139499
-0.308624 0 -0.0122019
0.198776 0 -0.0132946
-0.198776 0 0.0132946
0.308624 0 0.0122019
0.258619 0 -0.0139499
-2.56666 0 -0.00195531
4.40143 0 -0.00157413
4.05061 0 -0.00139834
0.349859 0 -0.00147306
0.0523386 0 -0.00139947
0.0115112 0 -0.00139858
0.0015448 0 -0.00139854
0.000146268 0 -0.00139853
1.00983e-05 0 -0.00139853
5.18298e-07 0 -0.00139853
2.01641e-08 0 -0.00139853
2.99465e-10 0 -0.00139853
-9.64084e-12 0 -0.00139853
7.7539e-12 0 -0.00139853
-3.88189e-12 0 -0.00139853
1.80981e-14 0 -0.00139853
-5.55112e-16 0 -0.00139853
3.34537e-16 0 -0.00139853
-5.55112e-16 0 -0.00139853
3.34537e-16 0 -0.00139853
-5.53641e-16 0 -0.00139853
-1.80411e-14 0 -0.00139853
3.88094e-12 0 -0.00139853
-7.75396e-12 0 -0.00139853
7.77294e-12 0 -0.00139853
-7.77262e-12 0 -0.00139853
7.75479e-12 0 -0.00139853
-3.88189e-12 0 -0.00139853
1.80981e-14 0 -0.00139853
-5.55112e-16 0 -0.00139853
-1.78176e-14 0 -0.00139853
3.88094e-12 0 -0.00139853
-7.75391e-12 0 -0.00139853
7.77205e-12 0 -0.00139853
-7.77262e-12 0 -0.00139853
7.75479e-12 0 -0.00139853
-3.88189e-12 0 -0.00139853
1.80981e-14 0 -0.00139853
-5.55112e-16 0 -0.00139853
-1.78176e-14 0 -0.00139853
3.88094e-12 0 -0.00139853
-7.75391e-12 0 -0.00139853
1.17197e-10 0 -0.00139853
-2.06908e-08 0 -0.00139853
-5.18446e-07 0 -0.00139853
-1.00983e-05 0 -0.00139853
-0.000146268 0 -0.00139853
-0.0015448 0 -0.00139854
-0.0115112 0 -0.00139858
-0.0523386 0 -0.00139947
-0.349859 0 -0.00147306
-4.05061 0 -0.00139834
-4.40143 0 -0.00157413
2.56666 0 -0.00195531
-0.258619 0 -0.0139499
-0.308624 0 0.0122019
0.198776 0 0.0132946
-0.200537 0 0.0860125
0.310831 0 0.120409
0.259501 0 0.0250662
-2.57129 0 0.0158255
4.40704 0 -0.000292335
4.05133 0 -0.0111944
0.349955 0 -0.0115253
0.0522747 0 -0.0114989
0.0115094 0 -0.0114993
0.00154489 0 -0.011501
0.000146306 0 -0.011502
1.00956e-05 0 -0.011502
5.18169e-07 0 -0.011502
2.01691e-08 0 -0.011502
2.99367e-10 0 -0.011502
-9.64151e-12 0 -0.011502
7.75513e-12 0 -0.011502
-3.8799e-12 0 -0.011502
1.82077e-14 0 -0.011502
5.55112e-16 0 -0.011502
4.44089e-16 0 -0.011502
5.55112e-16 0 -0.011502
4.44089e-16 0 -0.011502
4.44089e-16 0 -0.011502
-1.80411e-14 0 -0.011502
3.88045e-12 0 -0.011502
-7.75457e-12 0 -0.011502
7.77334e-12 0 -0.011502
-7.77323e-12 0 -0.011502
7.75513e-12 0 -0.011502
-3.8799e-12 0 -0.011502
1.82077e-14 0 -0.011502
5.55112e-16 0 -0.011502
-1.77636e-14 0 -0.011502
3.88045e-12 0 -0.011502
-7.75502e-12 0 -0.011502
7.77334e-12 0 -0.011502
-7.77323e-12 0 -0.011502
7.75513e-12 0 -0.011502
-3.8799e-12 0 -0.011502
1.82077e-14 0 -0.011502
5.55112e-16 0 -0.011502
-1.77636e-14 0 -0.011502
3.88045e-12 0 -0.011502
-7.75502e-12 0 -0.011502
1.17162e-10 0 -0.011502
-2.06878e-08 0 -0.011502
-5.18305e-07 0 -0.011502
-1.00957e-05 0 -0.011502
-0.000146306 0 -0.011502
-0.00154489 0 -0.011501
-0.0115094 0 -0.0114993
-0.0522747 0 -0.0114989
-0.349955 0 -0.0115253
-4.05133 0 -0.0111944
-4.40704 0 -0.000292335
2.57129 0 0.0158255
-0.259501 0 0.0250662
-0.310831 0 0.120409
0.200537 0 0.0860125
-0.0955369 0 0.283582
0.278289 0 0.468947
0.282529 0 0.381001
-2.66729 0 0.150994
4.50809 0 0.166142
3.96863 0 0.140817
0.351013 0 -0.0507535
0.0525598 0 -0.0525593
0.0115091 0 -0.0522742
0.00154812 0 -0.0523362
0.000148649 0 -0.0523876
1.01764e-05 0 -0.0523858
5.16827e-07 0 -0.0523857