# vtk DataFile Version 3.0
SiWiRVisFile
ASCII
DATASET UNSTRUCTURED_GRID
POINTS 1600 DOUBLE
78.047 100 74.9032
79.054 100 75.3739
79.9893 100 75.8786
81.8577 100 75.2437
82.9386 100 75.3859
84.0882 100 75.4024
85.376 100 75.6583
86.6281 100 75.8059
87.7931 100 76.0262
89.2848 100 75.8297
90.3393 100 76.3739
91.2479 100 76.7439
91.3423 100 75.5338
91.796 100 74.4217
92.2896 100 73.1367
94.3711 100 71.7721
95.5134 100 71.0689
96.5516 100 71.6521
96.5863 100 69.8097
99.3514 100 71.226
103.748 100 62.3346
103.073 100 64.4937
103.647 100 63.6155
105.08 100 63.8149
104.839 100 62.5039
106.833 100 62.1169
108.923 100 62.18
109.702 100 60.8247
110.72 100 61.174
111.619 100 60.454
112.874 100 60.454
113.773 100 61.174
114.791 100 60.8247
115.57 100 62.18
117.66 100 62.1169
119.653 100 62.5039
119.412 100 63.8149
120.845 100 63.6155
121.419 100 64.4937
120.744 100 62.3346
125.141 100 71.226
127.906 100 69.8097
127.941 100 71.6521
128.979 100 71.0689
130.121 100 71.7721
132.203 100 73.1367
132.696 100 74.4217
133.15 100 75.5338
133.245 100 76.7439
134.153 100 76.3739
135.208 100 75.8297
136.699 100 76.0262
137.864 100 75.8059
139.116 100 75.6583
140.404 100 75.4024
141.554 100 75.3859
142.635 100 75.2437
144.503 100 75.8786
145.438 100 75.3739
146.445 100 74.9032
78.12 100 76.052
79.1272 100 76.525
81.1806 100 76.1157
82.3053 100 76.303
83.4659 100 76.4021
84.6373 100 76.6454
85.7762 100 76.7376
87.0781 100 76.8622
88.1698 100 77.1753
89.3099 100 77.3432
90.3984 100 77.7049
91.5497 100 77.9709
92.2773 100 76.0937
92.6422 100 75.1258
93.9302 100 74.9733
93.3433 100 73.5057
95.2483 100 72.4522
98.3344 100 71.6947
99.2958 100 72.3385
101.116 100 70.7286
102.266 100 63.7576
100.759 100 68.2017
103.967 100 67.9705
108.794 100 64.7873
105.973 100 63.0011
107.173 100 63.4196
108.422 100 63.5813
109.429 100 63.0716
110.455 100 62.334
111.59 100 61.7591
112.903 100 61.7591
114.037 100 62.334
115.063 100 63.0716
116.071 100 63.5813
117.319 100 63.4196
118.52 100 63.0011
115.698 100 64.7873
120.525 100 67.9705
123.734 100 68.2017
122.227 100 63.7576
123.376 100 70.7286
125.197 100 72.3385
126.158 100 71.6947
129.244 100 72.4522
131.149 100 73.5057
130.562 100 74.9733
131.85 100 75.1258
132.215 100 76.0937
132.943 100 77.9709
134.094 100 77.7049
135.183 100 77.3432
136.323 100 77.1753
137.414 100 76.8622
138.716 100 76.7376
139.855 100 76.6454
141.026 100 76.4021
142.187 100 76.303
143.312 100 76.1157
145.365 100 76.525
146.372 100 76.052
78.2378 100 77.2411
79.3764 100 77.5331
80.3475 100 76.8657
81.4531 100 77.3415
82.8083 100 77.335
83.9456 100 77.4195
85.0884 100 77.6424
86.4245 100 77.8641
87.4986 100 78.1013
88.6167 100 78.2989
89.7641 100 78.8445
90.8995 100 79.3105
91.9222 100 79.4788
92.4022 100 77.2047
94.6636 100 75.8117
95.079 100 74.8054
95.2467 100 73.57
96.4808 100 72.8863
97.8206 100 72.9618
100.278 100 71.7375
102.388 100 70.6628
103.053 100 68.5767
105.09 100 69.349
105.929 100 68.4784
106.964 100 66.8448
108.001 100 69.376
108.803 100 68.3525
107.745 100 68.3372
110.325 100 63.8006
111.466 100 62.9605
113.026 100 62.9605
114.167 100 63.8006
116.748 100 68.3373
115.69 100 68.3525
116.492 100 69.376
117.528 100 66.8448
118.563 100 68.4784
119.403 100 69.349
121.44 100 68.5767
122.105 100 70.6629
124.214 100 71.7375
126.672 100 72.9618
128.012 100 72.8863
129.246 100 73.57
129.413 100 74.8054
129.829 100 75.8117
132.09 100 77.2047
132.57 100 79.4788
133.593 100 79.3105
134.728 100 78.8445
135.876 100 78.2989
136.994 100 78.1013
138.068 100 77.8641
139.404 100 77.6424
140.547 100 77.4195
141.684 100 77.335
143.039 100 77.3415
144.145 100 76.8657
145.116 100 77.5331
146.255 100 77.2411
78.4723 100 78.3216
79.5524 100 78.6928
80.4031 100 77.9804
81.653 100 78.4031
83.0966 100 78.4055
84.2254 100 78.5919
85.3606 100 78.7353
86.5621 100 78.9684
87.6886 100 79.2009
88.8931 100 79.5804
90.0124 100 80.0896
91.0871 100 80.3901
92.3191 100 80.4409
93.3973 100 77.6074
93.3615 100 76.1676
95.6195 100 76.5556
96.284 100 75.2345
96.8868 100 74.2391
97.996 100 74.1585
99.2442 100 73.6142
100.217 100 72.8873
101.654 100 71.6843
103.483 100 70.3058
104.941 100 70.4184
105.937 100 70.1325
106.916 100 69.2492
108.977 100 70.3422
110.133 100 70.4437
110.254 100 67.8314
111.243 100 64.2846
113.249 100 64.2846
114.238 100 67.8314
114.359 100 70.4438
115.516 100 70.3422
117.577 100 69.2492
118.555 100 70.1325
119.551 100 70.4184
121.009 100 70.3058
122.839 100 71.6843
124.276 100 72.8873
125.248 100 73.6142
126.496 100 74.1585
127.606 100 74.239
128.208 100 75.2345
128.873 100 76.5557
131.131 100 76.1676
131.095 100 77.6074
132.173 100 80.4409
133.405 100 80.3901
134.48 100 80.0896
135.599 100 79.5804
136.804 100 79.2009
137.93 100 78.9684
139.132 100 78.7353
140.267 100 78.5919
141.396 100 78.4055
142.839 100 78.4031
144.089 100 77.9804
144.94 100 78.6928
146.02 100 78.3216
78.5702 100 79.4155
79.5716 100 79.8108
80.7841 100 79.1756
82.1882 100 79.2819
83.4801 100 79.5052
84.6296 100 79.7199
85.6905 100 79.8542
86.8848 100 80.0056
87.756 100 80.7199
88.9629 100 80.7689
90.2132 100 81.1989
91.5523 100 81.3121
93.3808 100 79.7156
94.1844 100 78.3376
94.445 100 76.9261
96.3518 100 77.4559
96.7319 100 76.316
97.302 100 75.2831
98.5163 100 75.2966
99.5043 100 74.7385
101.383 100 72.7691
103.196 100 72.5593
105.253 100 71.668
106.31 100 71.1376
107.108 100 70.3337
107.999 100 71.0189
109.289 100 71.3699
110.43 100 71.4551
109.806 100 68.9416
111.41 100 67.1714
113.083 100 67.1714
114.687 100 68.9416
114.063 100 71.4552
115.203 100 71.3699
116.494 100 71.0189
117.384 100 70.3336
118.183 100 71.1377
119.239 100 71.668
121.296 100 72.5593
123.109 100 72.7691
124.988 100 74.7385
125.976 100 75.2966
127.19 100 75.2831
127.761 100 76.316
128.141 100 77.4559
130.047 100 76.9261
130.308 100 78.3376
131.112 100 79.7156
132.94 100 81.3121
134.279 100 81.1989
135.53 100 80.7689
136.736 100 80.7199
137.608 100 80.0056
138.802 100 79.8542
139.863 100 79.7199
141.012 100 79.5052
142.304 100 79.2819
143.708 100 79.1756
144.921 100 79.8108
145.922 100 79.4155
78.619 100 80.594
79.6506 100 81.1564
80.5506 100 80.3819
81.5727 100 80.1464
82.6552 100 80.3997
83.8142 100 80.5584
85.0129 100 80.7862
86.1566 100 80.936
87.092 100 81.5833
88.1398 100 81.7603
89.2167 100 81.9751
90.7718 100 82.1035
92.7245 100 81.4736
93.9781 100 80.6583
94.7711 100 79.5617
95.2954 100 77.8557
97.4454 100 78.1245
97.5969 100 77.0719
98.3289 100 76.3702
99.3832 100 75.8471
100.46 100 74.0346
102.429 100 73.3782
103.96 100 73.3966
105.055 100 73.1538
106.318 100 72.2899
107.374 100 71.9022
108.469 100 72.0289
109.615 100 72.3972
111.636 100 71.5572
111.244 100 70.4355
113.249 100 70.4355
112.856 100 71.5572
114.877 100 72.3972
116.024 100 72.0289
117.118 100 71.9023
118.174 100 72.2899
119.437 100 73.1538
120.532 100 73.3966
122.063 100 73.3782
124.033 100 74.0346
125.109 100 75.8471
126.163 100 76.3703
126.896 100 77.0719
127.047 100 78.1245
129.197 100 77.8557
129.721 100 79.5617
130.514 100 80.6583
131.768 100 81.4736
133.721 100 82.1035
135.276 100 81.9751
136.353 100 81.7603
137.4 100 81.5833
138.336 100 80.936
139.479 100 80.7862
140.678 100 80.5584
141.837 100 80.3997
142.92 100 80.1464
143.942 100 80.3819
144.842 100 81.1564
145.873 100 80.594
78.7698 100 81.8077
79.7723 100 82.323
80.6215 100 81.7011
81.7527 100 81.3975
82.7979 100 81.8542
84.143 100 81.57
85.2857 100 81.9084
86.3259 100 82.346
87.3103 100 82.7837
88.4334 100 82.9673
89.6553 100 83.0462
91.9049 100 82.4507
93.0859 100 82.5091
94.0161 100 81.8216
94.9921 100 80.8763
96.0586 100 78.6449
97.9722 100 78.9908
98.6385 100 77.9182
99.1998 100 76.9363
100.759 100 75.2915
101.466 100 74.3646
102.914 100 74.5103
104.547 100 74.3379
106.153 100 73.4009
107.137 100 72.9397
108.969 100 73.3146
110.047 100 73.6015
110.615 100 72.5301
110.787 100 74.728
111.124 100 73.5408
113.368 100 73.5408
113.706 100 74.728
113.877 100 72.5301
114.445 100 73.6015
115.523 100 73.3146
117.356 100 72.9397
118.339 100 73.4009
119.945 100 74.3379
121.579 100 74.5103
123.026 100 74.3646
123.734 100 75.2915
125.293 100 76.9363
125.854 100 77.9182
126.52 100 78.9908
128.434 100 78.6449
129.5 100 80.8763
130.476 100 81.8216
131.406 100 82.5091
132.587 100 82.4507
134.837 100 83.0462
136.059 100 82.9673
137.182 100 82.7837
138.167 100 82.346
139.207 100 81.9084
140.349 100 81.57
141.694 100 81.8542
142.74 100 81.3975
143.871 100 81.7011
144.72 100 82.323
145.723 100 81.8077
78.7012 100 82.9592
79.7125 100 83.4586
80.7292 100 82.9411
81.7489 100 83.7111
81.9655 100 82.5675
83.188 100 82.8544
84.3803 100 82.6869
85.4159 100 83.2716
86.5974 100 83.8373
87.8198 100 83.8126
88.8974 100 84.0673
90.093 100 84.0743
90.8478 100 83.1511
92.0427 100 83.475
93.24 100 83.638
94.351 100 82.956
96.5344 100 79.7072
99.1389 100 78.918
99.8737 100 77.962
100.362 100 76.8896
101.68 100 76.4818
102.191 100 75.359
103.8 100 75.1429
105.676 100 74.6326
106.84 100 74.5167
107.949 100 74.0586
107.623 100 75.3013
109.64 100 75.4771
110.663 100 75.8368
111.693 100 75.1568
112.8 100 75.1566
113.83 100 75.8369
114.852 100 75.4771
116.869 100 75.3013
116.543 100 74.0586
117.652 100 74.5167
118.817 100 74.6326
120.693 100 75.1429
122.302 100 75.359
122.813 100 76.4818
124.131 100 76.8896
124.619 100 77.962
125.353 100 78.918
127.958 100 79.7072
130.141 100 82.956
131.252 100 83.638
132.45 100 83.475
133.645 100 83.1511
134.399 100 84.0743
135.595 100 84.0673
136.673 100 83.8126
137.895 100 83.8373
139.077 100 83.2716
140.112 100 82.6869
141.304 100 82.8544
142.527 100 82.5675
142.743 100 83.7111
143.763 100 82.9411
144.78 100 83.4586
145.791 100 82.9592
78.5367 100 84.0605
79.6146 100 84.5421
80.7193 100 84.2171
81.6511 100 84.8384
82.8159 100 83.9369
83.9423 100 83.7043
84.9068 100 84.4033
85.9297 100 84.9219
87.0363 100 84.8556
88.1029 100 84.8751
89.0944 100 85.1239
90.285 100 85.2113
91.3295 100 85.008
92.6748 100 84.7511
94.4544 100 83.992
95.4734 100 81.8764
96.659 100 80.8059
97.571 100 80.2006
100.279 100 79.4343
101.236 100 78.06
102.242 100 77.3375
[...]
POINT_DATA 1600
SCALARS mass double
LOOKUP_TABLE default
1
1
1
1
1
1
1
1
1
1
1
1
1
1
1
1
1
1
1
1
1
1
1
1
1
1
1
1
1
1
1
1
1
1
1
1
1
1
1
1
1
1
1
1
1
1
1
1
1
1
1
1
1
1
1
1
1
1
1
1
1
1
1
1
1
1
1
1
1
1
1
1
1
1
1
1
1
1
1
1
1
1
1
1
1
1
1
1
1
1
1
1
1
1
1
1
1
1
1
1
1
1
1
1
1
1
1
1
1
1
1
1
1
1
1
1
1
1
1
1
1
1
1
1
1
1
1
1
1
1
1
1
1
1
1
1
1
1
1
1
1
1
1
1
1
1
1
1
1
1
1
1
1
1
1
1
1
1
1
1
1
1
1
1
1
1
1
1
1
1
1
1
1
1
1
1
1
1
1
1
1
1
1
1
1
1
1
1
1
1
1
1
1
1
1
1
1
1
1
1
1
1
1
1
1
1
1
1
1
1
1
1
1
1
1
1
1
1
1
1
1
1
1
1
1
1
1
1
1
1
1
1
1
1
1
1
1
1
1
1
1
1
1
1
1
1
1
1
1
1
1
1
1
1
1
1
1
1
1
1
1
1
1
1
1
1
1
1
1
1
1
1
1
1
1
1
1
1
1
1
1
1
1
1
1
1
1
1
1
1
1
1
1
1
1
1
1
1
1
1
1
1
1
1
1
1
1
1
1
1
1
1
1
1
1
1
1
1
1
1
1
1
1
1
1
1
1
1
1
1
1
1
1
1
1
1
1
1
1
1
1
1
1
1
1
1
1
1
1
1
1
1
1
1
1
1
1
1
1
1
1
1
1
1
1
1
1
1
1
1
1
1
1
1
1
1
1
1
1
1
1
1
1
1
1
1
1
1
1
1
1
1
1
1
1
1
1
1
1
1
1
1
1
1
1
1
1
1
1
1
1
1
1
1
1
1
1
1
1
1
1
1
1
1
1
1
1
1
1
1
1
1
1
1
1
1
1
1
1
1
1
1
1
1
1
1
1
1
1
1
1
1
1
1
1
1
1
1
1
1
1
1
1
1
1
1
1
1
1
1
1
1
1
1
1
1
1
1
1
1
1
1
1
1
1
1
1
1
1
1
1
1
1
1
1
1
1
1
1
1
1
1
1
1
1
1
1
1
1
1
1
1
1
1
1
1
1
1
1
1
1
1
1
1
1
1
1
1
1
1
1
1
1
1
1
1
1
1
1
1
1
1
1
1
1
1
1
1
1
1
1
1
1
1
1
1
1
1
1
1
1
1
1
1
1
1
1
1
1
1
1
1
1
1
1
1
1
1
1
1
1
1
1
1
1
1
1
1
1
1
1
1
1
1
1
1
1
1
1
1
1
1
1
1
1
1
1
1
1
1
1
1
1
1
1
1
1
1
1
1
1
1
1
1
1
1
1
1
1
1
1
1
1
1
1
1
1
1
1
1
1
1
1
1
1
1
1
1
1
1
1
1
1
1
1
1
1
1
1
1
1
1
1
1
1
1
1
1
1
1
1
1
1
1
1
1
1
1
1
1
1
1
1
1
1
1
1
1
1
1
1
1
1
1
1
1
1
1
1
1
1
1
1
1
1
1
1
1
1
1
1
1
1
1
1
1
1
1
1
1
1
1
1
1
1
1
1
1
1
1
1
1
1
1
1
1
1
1
1
1
1
1
1
1
1
1
1
1
1
1
1
1
1
1
1
1
1
1
1
1
1
1
1
1
1
1
1
1
1
1
1
1
1
1
1
1
1
1
1
1
1
1
1
1
1
1
1
1
1
1
1
1
1
1
1
1
1
1
1
1
1
1
1
1
1
1
1
1
1
1
1
1
1
1
1
1
1
1
1
1
1
1
1
1
1
1
1
1
1
1
1
1
1
1
1
1
1
1
1
1
1
1
1
1
1
1
1
1
1
1
1
1
1
1
1
1
1
1
1
1
1
1
1
1
1
1
1
1
1
1
1
1
1
1
1
1
1
1
1
1
1
1
1
1
1
1
1
1
1
1
1
1
1
1
1
1
1
1
1
1
1
1
1
1
1
1
1
1
1
1
1
1
1
1
1
1
1
1
1
1
1
1
1
1
1
1
1
1
1
1
1
1
1
1
1
1
1
1
1
1
1
1
1
1
1
1
1
1
1
1
1
1
1
1
1
1
1
1
1
1
1
1
1
1
1
1
1
1
1
1
1
1
1
1
1
1
1
1
1
1
1
1
1
1
1
1
1
1
1
1
1
1
1
1
1
1
1
1
1
1
1
1
1
1
1
1
1
1
1
1
1
1
1
1
1
1
1
1
1
1
1
1
1
1
1
1
1
1
1
1
1
1
1
1
1
1
1
1
1
1
1
1
1
1
1
1
1
1
1
1
1
1
1
1
1
1
1
1
1
1
1
1
1
1
1
1
1
1
1
1
1
1
1
1
1
1
1
1
1
1
1
1
1
1
1
1
1
1
1
1
1
1
1
1
1
1
1
1
1
1
1
1
1
1
1
1
1
1
1
1
1
1
1
1
1
1
1
1
1
1
1
1
1
1
1
1
1
1
1
1
1
1
1
1
1
1
1
1
1
1
1
1
1
1
1
1
1
1
1
1
1
1
1
1
1
1
1
1
1
1
1
1
1
1
1
1
1
1
1
1
1
1
1
1
1
1
1
1
1
1
1
1
1
1
1
1
1
1
1
1
1
1
1
1
1
1
1
1
1
1
1
1
1
1
1
1
1
1
1
1
1
1
1
1
1
1
1
1
1
1
1
1
1
1
1
1
1
1
1
1
1
1
1
1
1
1
1
1
1
1
1
1
1
1
1
1
1
1
1
1
1
1
1
1
1
1
1
1
1
1
1
1
1
1
1
1
1
1
1
1
1
1
1
1
1
1
1
1
1
1
1
1
1
1
1
1
1
1
1
1
1
1
1
1
1
1
1
1
1
1
1
1
1
1
1
1
1
1
1
1
1
1
1
1
1
1
1
1
1
1
1
1
1
1
1
1
1
1
1
1
1
1
1
1
1
1
1
1
1
1
1
1
1
1
1
1
1
1
1
1
1
1
1
1
1
1
1
1
1
1
1
1
1
1
1
1
1
1
1
1
1
1
1
1
1
1
1
1
1
1
1
1
1
1
1
1
1
1
1
1
1
1
1
1
1
1
1
1
1
1
1
1
1
1
1
1
1
1
1
1
1
1
1
1
1
1
1
1
1
1
1
1
1
1
1
1
1
1
1
1
1
1
1
1
1
1
1
1
1
1
1
1
1
1
1
1
1
1
1
1
1
1
1
1
1
1
1
1
1
1
1
1
1
1
1
1
1
1
1
1
1
1
1
1
1
1
1
1
1
1
1
1
1
1
1
1
1
1
1
1
1
1
1
1
1
1
1
1
1
1
1
1
1
1
1
1
1
1
1
1
1
1
1
1
1
1
1
1
1
1
1
1
1
1
1
1
1
1
1
1
1
1
1
1
1
1
1
1
1
1
1
1
1
1
1
1
1
1
1
1
1
1
1
1
1
1
1
1
1
1
1
1
1
1
1
1
1
1
1
1
1
1
1
1
1
1
1
1
1
1
1
1
1
1
1
1
1
1
1
1
1
1
1
1
1
1
1
1
1
1
VECTORS force double
-1.66138 0 6.23609
-27.8468 0 -0.206719
38.5246 0 -31.561
-6.22005 0 1.14224
21.8186 0 6.80307
2.46309 0 20.9338
-4.23972 0 16.7918
-7.6462 0 16.4131
4.00601 0 4.11929
3.36394 0 13.3291
-162.217 0 -59.6676
175.013 0 70.5175
-6.67518 0 0.553077
-4.10706 0 -0.958938
-4.50216 0 8.73067
5.9619 0 -5.96145
1.50641 0 16.6544
-11.8081 0 9.45872
-2.10085 0 4.00864
-26.7311 0 -18.0378
-6.80173 0 12.22
-14.4062 0 43.0244
25.5632 0 -48.0318
-0.910008 0 -19.5722
17.2349 0 18.1557
-5.71344 0 18.8673
-30.6792 0 -60.2013
-19.0054 0 0.206242
-13.3987 0 -9.57176
6.92521 0 16.9541
-6.92527 0 16.954
13.3985 0 -9.57156
19.0055 0 0.206219
30.6791 0 -60.2016
5.71344 0 18.8673
-17.2349 0 18.1557
0.910007 0 -19.5722
-25.5632 0 -48.0318
14.4062 0 43.0244
6.80172 0 12.22
26.7301 0 -18.0374
2.10085 0 4.00864
11.8081 0 9.45874
-1.5064 0 16.6545
-5.9619 0 -5.96147
4.5021 0 8.73069
4.10711 0 -0.958964
6.67558 0 0.5528
-175.013 0 70.5177
162.218 0 -59.6678
-3.36397 0 13.3291
-4.00601 0 4.11928
7.6462 0 16.4131
4.23972 0 16.7918
-2.46308 0 20.9338
-21.8186 0 6.8031
6.22007 0 1.14223
-38.5246 0 -31.561
27.8468 0 -0.206728
1.66137 0 6.23609
5.82594 0 0.362376
-18.1443 0 -39.1323
-7.51932 0 16.1464
-2.79902 0 10.4916
2.84441 0 -5.97145
28.9946 0 -69.2738
14.6713 0 -0.122339
-17.8909 0 21.0391
0.84705 0 3.13341
-0.958359 0 2.1861
6.04977 0 -6.07884
-10.0272 0 -8.85812
-34.6283 0 66.0961
36.8682 0 -41.4676
-11.2366 0 4.29339
3.42968 0 6.78098
19.1973 0 -5.24838
1.11057 0 14.1654
-23.7483 0 -2.40652
-1.42431 0 1.08224
0.800306 0 -9.05996
0.31922 0 0.0521956
9.5414 0 -2.96002
-1.96084 0 -14.2238
-0.500293 0 -1.84587
-1.09971 0 -11.8349
-3.62115 0 2.94133
49.6017 0 62.2232
5.5713 0 0.643169
37.359 0 29.3291
-37.3589 0 29.329
-5.57131 0 0.643119
-49.6018 0 62.2234
3.62122 0 2.94139
1.09972 0 -11.8349
0.500291 0 -1.84587
1.96083 0 -14.2238
-9.54161 0 -2.96022
-0.319216 0 0.0521953
-0.800304 0 -9.05997
1.42354 0 1.08377
23.7506 0 -2.40783
-1.11079 0 14.1658
-19.1973 0 -5.24845
-3.42963 0 6.78095
11.2364 0 4.2936
-36.8683 0 -41.4677
34.6277 0 66.0967
10.0272 0 -8.85809
-6.04978 0 -6.07886
0.958354 0 2.1861
-0.847065 0 3.13341
17.8909 0 21.0391
-14.6713 0 -0.12233
-28.9945 0 -69.2737
-2.84442 0 -5.97146
2.79902 0 10.4916
7.51933 0 16.1464
18.1443 0 -39.1323
-5.82594 0 0.362376
12.7259 0 -16.8445
5.54815 0 59.3427
4.49673 0 45.0626
-10.4073 0 -34.5031
-8.15396 0 -10.3594
-37.3518 0 60.5651
0.496528 0 16.3877
-22.2744 0 -18.9885
1.98666 0 -6.09837
3.23118 0 4.21348
3.89349 0 0.819231
-74.7768 0 -22.4846
32.5524 0 -31.9077
-30.7647 0 -14.6747
-2.09098 0 27.2622
11.4685 0 -17.7227
5.50655 0 11.0679
-4.04419 0 -3.35794
-0.22323 0 5.0574
43.0343 0 21.8571
-12.4886 0 8.91552
-7.04483 0 7.49335
14.806 0 -22.0514
3.40029 0 18.5005
0.917703 0 3.91713
24.0539 0 34.7331
38.3304 0 12.9117
-50.8525 0 -17.2786
-50.299 0 -41.093
-10.9339 0 -3.91044
10.9338 0 -3.91047
50.2992 0 -41.0929
50.8826 0 -17.2848
-38.36 0 12.9105
-24.0597 0 34.7425
-0.917543 0 3.91672
-3.40071 0 18.4999
-14.804 0 -22.0516
7.04501 0 7.49357
12.4882 0 8.91537
-43.0341 0 21.8563
0.223378 0 5.05745
4.04412 0 -3.35782
-5.50654 0 11.068
-11.4686 0 -17.7229
2.09129 0 27.2624
30.7646 0 -14.6749
-32.5524 0 -31.9075
74.7767 0 -22.4845
-3.89348 0 0.81924
-3.23116 0 4.21348
-1.98667 0 -6.09837
22.2743 0 -18.9885
-0.496551 0 16.3877
37.3517 0 60.5651
8.15396 0 -10.3593
10.4073 0 -34.5032
-4.49673 0 45.0626
-5.54815 0 59.3427
-12.7259 0 -16.8445
15.9242 0 -9.08578
-7.70905 0 1.09524
26.068 0 7.73388
-38.0987 0 -39.0108
0.823158 0 12.5458
2.74802 0 -1.98511
7.95008 0 12.4013
-10.0987 0 -11.3082
10.7275 0 3.35849
-1.41571 0 1.11624
-16.3217 0 -14.5731
-12.6972 0 -43.8803
11.8046 0 44.1078
13.4851 0 -20.756
24.7058 0 -1.96038
-11.4318 0 4.95568
-90.1962 0 -0.72293
-9.36085 0 -2.95092
12.5418 0 5.98153
9.42194 0 -5.41505
22.8947 0 20.0008
3.97532 0 0.688849
1.27852 0 0.485846
-56.5703 0 46.7342
60.5664 0 -47.778
-22.9198 0 -16.1235
-13.0087 0 -21.3923
-31.417 0 -31.0631
0.298088 0 6.64152
51.2612 0 14.7805
-51.2614 0 14.7805
-0.29778 0 6.64218
31.4102 0 -31.0408
13.0073 0 -21.3881
22.9251 0 -16.1237
-60.5776 0 -47.7657
56.5748 0 46.7349
-1.27822 0 0.486027
-3.9752 0 0.686123
-22.8963 0 20.0017
-9.42213 0 -5.41397
-12.5425 0 5.98166
9.36188 0 -2.95047
90.1994 0 -0.72356
11.4315 0 4.95565
-24.7055 0 -1.96031
-13.4849 0 -20.7561
-11.8046 0 44.1077
12.6973 0 -43.8805
16.3216 0 -14.5729
1.41572 0 1.11623
-10.7275 0 3.3585
10.0988 0 -11.3082
-7.95009 0 12.4013
-2.74801 0 -1.98512
-0.823151 0 12.5458
38.0987 0 -39.0107
-26.068 0 7.73388
7.70904 0 1.09524
-15.9242 0 -9.08578
-6.53833 0 3.65157
21.2463 0 22.0437
-2.57352 0 4.30821
69.0065 0 34.9991
-7.65905 0 -12.5938
-35.2529 0 -14.9486
41.1437 0 1.79689
-9.09425 0 21.4622
15.7313 0 -20.9405
2.82981 0 5.77761
-17.4736 0 -28.9569
38.3975 0 57.1415
-6.42737 0 1.34755
31.4954 0 14.9794
0.408482 0 8.61524
14.2666 0 -2.08912
2.06364 0 -0.901336
99.0204 0 9.59288
-71.1952 0 -62.0206
9.52478 0 -10.9227
-4.9094 0 10.8278
-0.269739 0 1.62588
17.4379 0 -5.41695
9.2803 0 34.9429
-2.06743 0 3.69754
24.0228 0 -22.319
35.7247 0 -31.3686
11.9946 0 25.9336
-4.92625 0 -5.54126
-6.23058 0 5.35261
6.23046 0 5.35237
4.92554 0 -5.54139
-11.9895 0 25.9176
-35.7202 0 -31.3753
-24.0136 0 -22.3046
2.07489 0 3.70124
-9.27968 0 34.9251
-17.4403 0 -5.41721
0.270293 0 1.62471
4.91004 0 10.829
-9.52402 0 -10.9234
71.1904 0 -62.0177
-99.0239 0 9.59267
-2.06335 0 -0.900971
-14.2665 0 -2.08937
-0.408529 0 8.61501
-31.4954 0 14.9795
6.427 0 1.34782
-38.3975 0 57.1417
17.4736 0 -28.957
-2.82981 0 5.77762
-15.7313 0 -20.9405
9.09427 0 21.4622
-41.1437 0 1.79689
35.2529 0 -14.9486
7.65903 0 -12.5938
-69.0065 0 34.999
2.57352 0 4.30821
-21.2463 0 22.0437
6.53834 0 3.65157
20.4952 0 -1.13448
6.37053 0 -19.0528
-47.0567 0 15.5197
13.9875 0 17.0638
10.2263 0 -3.62455
0.259783 0 -25.975
-6.64353 0 3.0528
-4.81931 0 -0.763058
-27.3632 0 -0.784175
25.6873 0 19.475
14.6163 0 -0.880328
12.1134 0 -8.26594
-4.97543 0 1.21551
-55.6315 0 -5.87949
-10.2441 0 6.65787
-21.0622 0 -20.0422
-55.5062 0 -54.0874
-65.67 0 37.5579
19.8168 0 -84.6545
61.6809 0 41.1262
-47.7599 0 -9.69971
-7.60539 0 11.9073
-11.83 0 0.294109
3.02175 0 5.4604
-49.4876 0 -39.836
-20.4033 0 -24.476
-10.6291 0 40.0482
-92.453 0 2.70943
-9.79309 0 -5.66747
0.620886 0 19.2069
-0.620441 0 19.2061
9.79202 0 -5.66751
92.449 0 2.70535
10.6289 0 40.0465
20.382 0 -24.51
49.4906 0 -39.839
-3.02176 0 5.46056
11.8279 0 0.297006
7.60555 0 11.9076
47.7626 0 -9.70004
-61.6768 0 41.1225
-19.8172 0 -84.653
65.6693 0 37.5563
55.5066 0 -54.092
21.0622 0 -20.0422
10.2441 0 6.65793
55.632 0 -5.87989
4.97547 0 1.21525
-12.1134 0 -8.26659
-14.6162 0 -0.880368
-25.6875 0 19.475
27.3633 0 -0.784174
4.81933 0 -0.763065
6.64352 0 3.05281
-0.259758 0 -25.975
-10.2263 0 -3.62455
-13.9875 0 17.0638
47.0567 0 15.5197
-6.37054 0 -19.0528
-20.4952 0 -1.13448
-5.79732 0 2.08135
-40.1414 0 25.8936
45.6947 0 -21.5399
-1.7413 0 -6.17602
6.43285 0 -38.1765
15.7388 0 33.1262
-9.28238 0 -2.23421
-39.3747 0 8.55255
22.6797 0 4.07248
43.7204 0 -48.7123
-7.43227 0 -3.36681
-12.2198 0 -75.4442
2.67273 0 15.9897
-0.257678 0 -2.54281
48.5385 0 4.27702
14.9489 0 2.18042
59.4546 0 87.92
-12.9818 0 -1.6212
53.4084 0 46.6973
-2.08334 0 -11.3934
45.3847 0 17.1298
-13.4897 0 -20.2391
19.5783 0 -6.07352
-12.5658 0 24.5309
51.2174 0 59.4788
-14.3742 0 -3.59619
-10.8164 0 -10.4777
100.339 0 30.7348
-112.192 0 -63.4871
14.3478 0 9.31141
-14.3504 0 9.31893
112.219 0 -63.4645
-100.333 0 30.7298
10.8078 0 -10.4737
14.3841 0 -3.59721
-51.2084 0 59.5001
12.5633 0 24.5357
-19.5779 0 -6.07636
13.4939 0 -20.2455
-45.3873 0 17.1305
2.08381 0 -11.3938
-53.4063 0 46.6979
12.9809 0 -1.62188
-59.4565 0 87.9256
-14.949 0 2.18066
-48.5389 0 4.27731
0.257833 0 -2.54255
-2.6729 0 15.9899
12.2201 0 -75.4443
7.43224 0 -3.36687
-43.7204 0 -48.7123
-22.6797 0 4.07248
39.3746 0 8.55252
9.28239 0 -2.23422
-15.7388 0 33.1263
-6.43284 0 -38.1765
1.74128 0 -6.17602
-45.6947 0 -21.5399
40.1414 0 25.8936
5.79733 0 2.08132
14.9751 0 -14.0234
4.90853 0 -8.92946
11.3034 0 3.02963
-23.3945 0 -13.3401
-11.595 0 11.4923
8.3121 0 21.7096
6.44379 0 -9.40087
-0.352313 0 -3.72258
-0.0901884 0 -13.0703
-54.5859 0 33.3865
12.9033 0 -36.6076
-4.04723 0 6.59944
6.33226 0 45.3238
14.2774 0 61.2832
3.04418 0 1.59381
-13.2178 0 -56.5443
3.17502 0 -12.7111
4.89645 0 6.6831
-10.6156 0 -4.72006
-4.06036 0 3.43721
-43.9295 0 -72.6951
-11.904 0 6.00012
24.12 0 -5.72799
1.80079 0 -23.2634
-8.96736 0 -18.6362
-9.1853 0 -0.126811
11.3902 0 3.08124
-7.733 0 -10.7203
-119.369 0 -55.0184
90.4483 0 55.4579
-90.4641 0 55.481
119.556 0 -55.0945
7.66831 0 -10.7029
-11.3748 0 3.06768
9.18478 0 -0.128679
8.95575 0 -18.6224
-1.80321 0 -23.2664
-24.1218 0 -5.72159
11.9081 0 6.00047
43.9308 0 -72.6982
4.06061 0 3.43733
10.6155 0 -4.72012
-4.89486 0 6.68296
-3.17517 0 -12.7122
13.2177 0 -56.5437
-3.04421 0 1.59379
-14.2775 0 61.2832
-6.33225 0 45.3243
4.04715 0 6.5995
-12.9033 0 -36.6077
54.586 0 33.3864
0.0901812 0 -13.0703
0.352314 0 -3.72258
-6.44378 0 -9.40085
-8.3121 0 21.7096
11.595 0 11.4923
23.3945 0 -13.3401
-11.3035 0 3.02963
-4.90851 0 -8.92943
-14.9751 0 -14.0233
19.3381 0 -0.428526
-2.94154 0 23.353
-11.136 0 -15.8481
15.7848 0 -2.85656
13.4987 0 2.40021
2.58434 0 10.9734
-5.93147 0 -7.26036
-3.17835 0 -0.847009
-13.0884 0 6.44154
-44.7189 0 -1.81308
91.6512 0 55.2392
-47.0237 0 7.96008
34.8287 0 -1.25321
-4.40115 0 -3.85483
-2.31626 0 54.4098
3.31174 0 7.6685
-7.24318 0 11.1699
-19.1914 0 -34.0528
2.92679 0 1.49814
-35.6652 0 -15.48
44.9743 0 67.4035
-16.4752 0 26.9651
-98.5706 0 23.4404
84.4562 0 -11.7716
-21.2299 0 0.371126
28.046 0 -29.0038
8.06521 0 2.98007
7.51933 0 -0.381335
4.18296 0 -8.82555
139.212 0 54.2451
-139.336 0 54.2111
-4.19038 0 -8.83758
-7.52119 0 -0.383514
-8.06234 0 2.97507
-28.0568 0 -29.013
21.2345 0 0.374731
-84.441 0 -11.7689
98.5568 0 23.4427
16.4697 0 26.9647
-44.9756 0 67.4066
35.6732 0 -15.4831
-2.92639 0 1.49822
19.1919 0 -34.0542
7.24375 0 11.1711
-3.31168 0 7.66807
2.31697 0 54.4094
4.40123 0 -3.85503
-34.8284 0 -1.25315
47.0234 0 7.95999
-91.6512 0 55.2393
44.7186 0 -1.8129
13.0887 0 6.44154
3.17834 0 -0.847004
5.93145 0 -7.26035
-2.58433 0 10.9734
-13.4987 0 2.40021
-15.7849 0 -2.85654
11.136 0 -15.8481
2.94155 0 23.353
-19.3381 0 -0.428584
16.8857 0 0.167746
-26.0438 0 -17.6704
-4.20617 0 8.28001
-109.73 0 -75.9327
13.5025 0 3.67772
-0.681932 0 8.0041
-68.6223 0 -107.598
-0.599765 0 -1.27433
-27.2582 0 -52.2924
-18.4785 0 -17.6619
1.42708 0 0.212482
5.65478 0 -6.44863
-1.03292 0 -2.4662
-19.9485 0 -1.26187
-0.609916 0 -2.25587
-8.099 0 8.16096
-26.7827 0 -20.2135
-3.14798 0 11.5112
24.1941 0 -6.35596
0.862426 0 -36.9788
-52.7983 0 -12.0889
36.1843 0 10.8281
-17.7069 0 -15.4053
21.3267 0 12.6652
19.7614 0 2.87514
-17.7886 0 48.1601
-14.2307 0 -10.3639
-7.57436 0 15.0265
62.5838 0 0.819972
-77.7851 0 15.8499
77.7771 0 15.8749
-62.5695 0 0.85044
7.57619 0 15.0361
14.2401 0 -10.3606
17.796 0 48.1642
-19.7674 0 2.87747
-21.3244 0 12.6617
17.7052 0 -15.4075
-36.1984 0 10.8281
52.8103 0 -12.0952
-0.86178 0 -36.9827
-24.1945 0 -6.35572
3.14804 0 11.5114
26.7841 0 -20.2152
8.09854 0 8.16069
0.609763 0 -2.25521
19.9485 0 -1.26195
1.03271 0 -2.46587
-5.65488 0 -6.44858
-1.42706 0 0.212509
18.4786 0 -17.6619
27.2582 0 -52.2925
0.599799 0 -1.2743
68.6224 0 -107.597
0.681924 0 8.00411
-13.5023 0 3.67777
109.73 0 -75.9328
4.20616 0 8.28001
26.0437 0 -17.6703
-16.8857 0 0.167763
17.0541 0 4.09898
15.9054 0 3.75547
-7.56563 0 -3.03251
27.0105 0 17.6247
81.7227 0 64.053
-12.8895 0 5.50853
-12.0783 0 -15.2523
84.2911 0 101.895
-47.7341 0 -83.3225
-2.78285 0 -6.99586
54.7779 0 -148.541
17.175 0 -10.4009
-2.61921 0 -3.7254
-8.96077 0 -8.89377
-6.65135 0 -10.5827
2.43817 0 5.51715
4.9217 0 -5.12181
-1.89962 0 14.0791
-3.56474 0 3.16949
20.3627 0 21.1262
-29.5884 0 -10.9056
0.321428 0 -13.8245
35.8227 0 25.5958
-3.49011 0 -4.4594
5.3607 0 -1.44683
-14.3999 0 -4.82404
-7.45464 0 -32.4814
-56.9004 0 6.23894
15.2604 0 -15.9279
-1.30683 0 -16.683
1.32576 0 -16.7049
-15.2416 0 -15.9316
56.8856 0 6.22778
7.45555 0 -32.499
14.4001 0 -4.83031
-5.35278 0 -1.4448
3.49219 0 -4.45679
-35.8296 0 25.5967
-0.317857 0 -13.8149
29.5787 0 -10.9011
-20.3632 0 21.1266
3.56409 0 3.16961
1.89745 0 14.0819
-4.92188 0 -5.12171
-2.43839 0 5.51724
6.65199 0 -10.5832
8.96028 0 -8.89353
2.6197 0 -3.72604
-17.1749 0 -10.4009
-54.7779 0 -148.541
2.78281 0 -6.99582
47.734 0 -83.3224
-84.2911 0 101.895
12.0786 0 -15.253
12.8895 0 5.50851
-81.7226 0 64.0529
-27.0104 0 17.6246
7.56564 0 -3.03256
-15.9054 0 3.75548
-17.0541 0 4.099
9.77343 0 17.7461
6.08626 0 -22.8313
-11.7658 0 20.5945
7.4338 0 -11.2745
-3.98828 0 -4.49471
9.55562 0 5.52773
-33.0867 0 -42.2928
32.2703 0 10.1161
0.793701 0 -2.54488
27.7564 0 62.5951
-72.9726 0 124.026
-10.6402 0 32.3536
29.0731 0 0.700039
12.6711 0 -3.60376
-21.6067 0 -31.4782
0.932556 0 26.5063
-18.0438 0 6.02315
8.27283 0 -10.5427
8.44392 0 6.78145
-6.39173 0 17.5243
-125.373 0 -148.385
2.87317 0 12.1458
-32.2042 0 7.17976
30.2047 0 -14.3962
-0.835563 0 12.1421
6.48024 0 -1.55263
-16.1883 0 5.70669
22.8005 0 13.785
-23.7436 0 21.7171
-10.1965 0 12.1312
10.195 0 12.1646
23.7054 0 21.7097
-22.8102 0 13.8012
16.1929 0 5.713
-6.47926 0 -1.55301
0.832922 0 12.1419
-30.2216 0 -14.3776
32.1933 0 7.18052
-2.87238 0 12.1467
125.383 0 -148.383
6.3927 0 17.526
-8.44325 0 6.78076
-8.2726 0 -10.5428
18.0439 0 6.02312
-0.934483 0 26.5065
21.6069 0 -31.4783
-12.6713 0 -3.6034
-29.073 0 0.699925
10.6399 0 32.3537
72.9727 0 124.026
-27.7564 0 62.5951
-0.79358 0 -2.54478
-32.2705 0 10.1166
33.0868 0 -42.2929
-9.55588 0 5.52796
3.98824 0 -4.49472
-7.43377 0 -11.2744
11.7658 0 20.5944
-6.08627 0 -22.8312
-9.77343 0 17.7461
-29.249 0 -90.7058
-2.90992 0 3.57336
-3.29733 0 10.7415
-10.0119 0 -9.93451
-4.70638 0 25.6498
21.2156 0 -17.5295
-4.78995 0 -25.4513
4.49759 0 -6.9422
11.8945 0 45.0586
49.2967 0 69.5193
4.04125 0 9.74205
-17.6686 0 -17.566
1.71703 0 3.4631
-13.3367 0 5.4866
-20.874 0 -12.7475
40.2961 0 46.1787
-17.7325 0 26.87
-2.05226 0 -59.3148
11.9255 0 -2.4733
17.1682 0 4.89767
-16.2477 0 10.0923
124.994 0 135.413
-8.93124 0 -37.1938
20.2028 0 4.65365
-6.50839 0 -4.13541
11.5184 0 10.1617
-2.09616 0 -8.22108
-15.0801 0 16.5931
13.5747 0 -40.525
4.16717 0 9.57494
-4.17035 0 9.55576
-13.5622 0 -40.5277
15.0747 0 16.5919
2.09568 0 -8.21419
-11.5165 0 10.1584
6.50383 0 -4.13245
-20.2169 0 4.64331
8.92905 0 -37.2035
-124.988 0 135.415
16.2383 0 10.0957
-17.1679 0 4.89343
-11.9263 0 -2.47344
2.0509 0 -59.3114
17.7322 0 26.8698
-40.2962 0 46.1787
20.8751 0 -12.7474
13.3366 0 5.48687
-1.71721 0 3.46333
17.6686 0 -17.5658
-4.04125 0 9.74205
-49.2967 0 69.5192
-11.8945 0 45.0582
-4.49771 0 -6.94194
4.78992 0 -25.4512
-21.2156 0 -17.5295
4.70638 0 25.6498
10.0119 0 -9.93452
3.29736 0 10.7416
2.90991 0 3.57336
29.2491 0 -90.706
1.98535 0 -19.7754
55.1329 0 84.6379
-39.7835 0 -32.1544
6.22188 0 4.87231
-3.54284 0 7.02703
-74.8991 0 4.93087
57.785 0 31.9428
-17.5912 0 24.8443
35.1391 0 -22.7336
5.8521 0 -5.39952
-34.477 0 -7.43258
34.8559 0 8.37677
-11.5946 0 -35.4776
-18.0119 0 -14.873
-18.5036 0 6.67891
-12.5038 0 -30.097
46.8347 0 28.8918
31.5493 0 29.4163
6.74945 0 0.299023
-5.74201 0 15.2852
7.74921 0 7.40895
-20.4288 0 -8.36112
7.97356 0 -29.1649
19.9304 0 18.2872
59.4734 0 -72.2827
27.9745 0 0.200105
2.6659 0 6.98124
-9.41703 0 10.0151
-12.8149 0 24.1442
3.19688 0 0.0511671
-3.21084 0 0.050863
12.8235 0 24.1494
9.41098 0 10.0142
-2.6728 0 6.9738
-27.9317 0 0.185368
-59.488 0 -72.2876
-19.9272 0 18.3051
-7.95903 0 -29.1685
20.4271 0 -8.3629
-7.74922 0 7.40922
5.74283 0 15.288
-6.74913 0 0.2992
-31.5459 0 29.4128
-46.8387 0 28.8929
12.5054 0 -30.0986
18.5047 0 6.67959
18.012 0 -14.8748
11.5944 0 -35.4767
-34.8551 0 8.37677
34.4763 0 -7.43271
-5.85208 0 -5.39956
-35.1387 0 -22.7336
17.591 0 24.8445
-57.7849 0 31.9428
74.8991 0 4.93086
3.54286 0 7.02706
-6.2219 0 4.87234
39.7836 0 -32.1545
-55.133 0 84.6381
-1.98532 0 -19.7754
-26.5454 0 -32.2545
18.8703 0 31.6504
0.408733 0 -32.3356
-29.4294 0 38.1438
56.6902 0 -8.80336
0.741573 0 -21.4562
-8.32761 0 -4.35369
-0.573599 0 8.92978
-4.42003 0 -22.6387
-80.7305 0 23.7844
96.8551 0 -5.33263
-135.801 0 11.5392
165.363 0 -83.663
-27.3853 0 44.9476
-3.89329 0 -2.15131
58.6551 0 36.9769
-15.8301 0 -19.701
-90.2704 0 5.57344
-2.64235 0 -2.43812
-8.3472 0 -6.90065
-6.47818 0 2.21541
15.3768 0 49.9446
-14.5814 0 5.71299
-55.4141 0 88.3871
4.85309 0 -16.1062
-1.23442 0 0.41675
-5.4736 0 -7.38914
-23.5012 0 -5.92595
2.93633 0 -23.9669
4.41636 0 -12.195
-4.41497 0 -12.1947
-2.82222 0 -24.0816
23.415 0 -5.90427
5.47557 0 -7.38987
1.23967 0 0.410704
-4.85169 0 -16.1019
55.4192 0 88.387
14.5831 0 5.71155
-15.3862 0 49.9433
6.48669 0 2.21092
8.34683 0 -6.90116
2.64128 0 -2.43713
90.2696 0 5.57285
15.8301 0 -19.7015