# vtk DataFile Version 3.0
SiWiRVisFile
ASCII
DATASET UNSTRUCTURED_GRID
POINTS 1600 DOUBLE
79.048 100 75.7199
80.1213 100 76.1731
81.1601 100 76.7561
82.6046 100 76.2681
83.7651 100 76.3712
84.8599 100 76.6554
85.9228 100 76.7913
86.9835 100 76.8584
88.0983 100 76.9677
89.2453 100 76.9997
90.3694 100 77.1183
91.4783 100 77.1225
92.5873 100 76.9684
93.5994 100 76.9163
94.669 100 76.9039
95.7856 100 76.4961
96.8062 100 76.1193
98.0686 100 75.8779
99.1018 100 75.8299
100.234 100 75.3472
102.516 100 70.0888
102.987 100 71.9804
103.696 100 70.9987
104.846 100 70.896
106.009 100 70.7788
107.145 100 70.7918
108.256 100 70.614
109.575 100 70.6978
110.81 100 70.3461
111.688 100 69.5548
112.804 100 69.5548
113.682 100 70.3461
114.917 100 70.6978
116.236 100 70.614
117.347 100 70.7918
118.483 100 70.7788
119.646 100 70.896
120.797 100 70.9987
121.505 100 71.9804
121.976 100 70.0888
124.259 100 75.3472
125.391 100 75.8299
126.424 100 75.8779
127.686 100 76.1193
128.707 100 76.4961
129.823 100 76.9039
130.893 100 76.9163
131.905 100 76.9684
133.014 100 77.1225
134.123 100 77.1183
135.247 100 76.9997
136.394 100 76.9677
137.509 100 76.8584
138.57 100 76.7913
139.633 100 76.6554
140.727 100 76.3712
141.888 100 76.2681
143.332 100 76.7561
144.371 100 76.1731
145.444 100 75.7199
79.2488 100 76.8102
80.2921 100 77.3322
82.1102 100 77.1673
83.2004 100 77.3088
84.2468 100 77.5866
85.2961 100 77.7232
86.3459 100 77.8055
87.4461 100 77.8904
88.5607 100 77.9768
89.7138 100 78.0691
90.8635 100 78.1046
91.9589 100 78.0972
93.045 100 77.989
94.1027 100 77.9579
95.1849 100 77.7769
96.151 100 77.5753
97.2353 100 77.1079
98.7235 100 76.7912
99.83 100 76.6324
101.365 100 76.3239
102.014 100 72.6258
102.053 100 75.297
103.475 100 74.566
105.571 100 73.5007
105.366 100 72.2106
106.639 100 71.87
107.743 100 71.7287
108.819 100 71.5598
110.243 100 71.5273
111.545 100 71.2192
112.948 100 71.2192
114.249 100 71.5273
115.673 100 71.5598
116.749 100 71.7287
117.854 100 71.87
119.126 100 72.2106
118.921 100 73.5007
121.017 100 74.566
122.439 100 75.297
122.479 100 72.6258
123.128 100 76.3239
124.662 100 76.6324
125.769 100 76.7912
127.257 100 77.1079
128.341 100 77.5753
129.308 100 77.7769
130.39 100 77.9579
131.447 100 77.989
132.534 100 78.0972
133.629 100 78.1046
134.779 100 78.0691
135.932 100 77.9768
137.046 100 77.8904
138.146 100 77.8055
139.196 100 77.7232
140.246 100 77.5866
141.292 100 77.3088
142.382 100 77.1673
144.2 100 77.3322
145.244 100 76.8102
79.3868 100 77.9698
80.4224 100 78.503
81.3112 100 77.8841
82.435 100 78.1812
83.5433 100 78.4804
84.58 100 78.619
85.7048 100 78.741
86.7729 100 78.794
87.8772 100 78.9074
89.0302 100 79.0039
90.1987 100 79.041
91.3386 100 79.171
92.471 100 79.1114
93.597 100 78.915
94.755 100 78.8878
95.7805 100 78.6127
97.118 100 78.202
98.1178 100 77.7991
99.9491 100 77.8936
100.83 100 77.2996
102.436 100 76.5149
103.171 100 75.6041
104.462 100 75.9503
105.848 100 76.125
106.669 100 75.3991
108.375 100 76.0459
109.667 100 75.8932
109.841 100 74.7937
110.582 100 73.3056
111.581 100 72.307
112.911 100 72.307
113.91 100 73.3056
114.651 100 74.7937
114.826 100 75.8932
116.117 100 76.0459
117.823 100 75.3991
118.645 100 76.125
120.03 100 75.9503
121.322 100 75.6041
122.057 100 76.5149
123.662 100 77.2996
124.543 100 77.8936
126.375 100 77.7991
127.374 100 78.202
128.712 100 78.6127
129.737 100 78.8878
130.895 100 78.915
132.021 100 79.1114
133.154 100 79.171
134.294 100 79.041
135.462 100 79.0039
136.615 100 78.9074
137.72 100 78.794
138.788 100 78.741
139.912 100 78.619
140.949 100 78.4804
142.057 100 78.1812
143.181 100 77.8841
144.07 100 78.503
145.106 100 77.9698
79.5041 100 79.0816
80.7452 100 79.5845
81.6804 100 78.9668
82.7489 100 79.2449
83.9273 100 79.6401
85.1238 100 79.6084
86.2546 100 79.824
87.2942 100 79.8589
88.3564 100 79.9595
89.3581 100 80.0313
90.3794 100 80.1868
91.4159 100 80.2693
92.4314 100 80.1337
93.448 100 79.9899
94.4659 100 79.9482
95.5211 100 79.7589
96.6008 100 79.2661
97.694 100 79.0699
98.7261 100 78.6943
99.8052 100 78.8706
100.919 100 78.672
102.478 100 77.5068
103.464 100 76.6631
104.484 100 77.0683
105.491 100 77.2356
106.641 100 77.0085
108.331 100 77.1129
109.536 100 77.5372
110.709 100 75.3802
111.083 100 74.4401
113.409 100 74.4401
113.784 100 75.3802
114.956 100 77.5372
116.161 100 77.1129
117.851 100 77.0085
119.001 100 77.2356
120.009 100 77.0683
121.028 100 76.6631
122.015 100 77.5068
123.574 100 78.672
124.687 100 78.8706
125.766 100 78.6943
126.798 100 79.0699
127.892 100 79.2661
128.971 100 79.7589
130.026 100 79.9482
131.044 100 79.9899
132.061 100 80.1337
133.077 100 80.2693
134.113 100 80.1868
135.134 100 80.0313
136.136 100 79.9595
137.198 100 79.8589
138.238 100 79.824
139.369 100 79.6084
140.565 100 79.6401
141.744 100 79.2449
142.812 100 78.9668
143.747 100 79.5845
144.988 100 79.0816
79.8288 100 80.1654
80.8634 100 80.7044
81.8627 100 80.0864
83.1394 100 80.4207
84.5748 100 80.6694
85.5742 100 80.777
86.6229 100 80.9054
87.6978 100 80.9025
88.8643 100 80.9334
89.9153 100 81.127
90.9767 100 81.2322
92.0149 100 81.1536
93.0164 100 81.0391
94.033 100 80.9196
95.0322 100 80.9012
96.0471 100 80.7342
97.1106 100 80.2138
98.1109 100 79.9718
99.3994 100 79.9204
100.519 100 79.6457
101.923 100 78.416
103.064 100 78.6203
103.893 100 78.1081
105.051 100 78.159
106.194 100 77.9286
107.384 100 77.8662
108.711 100 78.123
109.716 100 78.5429
110.518 100 77.2099
111.654 100 76.0367
112.839 100 76.0367
113.975 100 77.2099
114.776 100 78.5429
115.781 100 78.123
117.108 100 77.8662
118.299 100 77.9286
119.442 100 78.159
120.599 100 78.1081
121.428 100 78.6203
122.57 100 78.416
123.973 100 79.6457
125.093 100 79.9204
126.381 100 79.9718
127.382 100 80.2138
128.445 100 80.7342
129.46 100 80.9012
130.459 100 80.9196
131.476 100 81.0391
132.477 100 81.1536
133.516 100 81.2322
134.577 100 81.127
135.628 100 80.9334
136.795 100 80.9025
137.869 100 80.9054
138.918 100 80.777
139.918 100 80.6694
141.353 100 80.4207
142.63 100 80.0864
143.629 100 80.7044
144.664 100 80.1654
79.8392 100 81.2941
80.8997 100 81.7983
81.8509 100 81.2466
82.8002 100 81.6896
83.8445 100 81.4852
85.0362 100 81.6721
86.0575 100 82.047
87.2342 100 81.8919
88.3094 100 81.9526
89.4598 100 82.0395
90.4949 100 82.1476
91.5418 100 82.137
92.5575 100 82.0998
93.6252 100 81.9885
94.672 100 81.9934
95.6976 100 81.6855
96.8023 100 81.3857
97.7214 100 81.1045
98.7955 100 80.7642
100.161 100 80.6327
101.574 100 79.4994
102.585 100 79.4829
103.717 100 79.4919
104.731 100 79.2879
105.691 100 79.058
106.731 100 78.7508
107.828 100 78.8569
108.879 100 79.1973
110.777 100 78.9903
111.33 100 77.9844
113.162 100 77.9844
113.715 100 78.9903
115.613 100 79.1973
116.665 100 78.8569
117.761 100 78.7508
118.801 100 79.058
119.761 100 79.2879
120.775 100 79.4919
121.907 100 79.4829
122.918 100 79.4994
124.331 100 80.6327
125.697 100 80.7642
126.771 100 81.1045
127.69 100 81.3857
128.795 100 81.6855
129.82 100 81.9934
130.867 100 81.9885
131.935 100 82.0998
132.951 100 82.137
133.998 100 82.1476
135.033 100 82.0395
136.183 100 81.9526
137.258 100 81.8919
138.435 100 82.047
139.456 100 81.6721
140.648 100 81.4852
141.692 100 81.6896
142.642 100 81.2466
143.593 100 81.7983
144.653 100 81.2941
79.9872 100 82.388
80.9743 100 82.9117
81.9813 100 82.3736
82.9809 100 82.9286
84.1735 100 82.467
85.3662 100 82.9522
86.6602 100 82.9548
87.7666 100 82.9008
88.8603 100 82.9118
89.8869 100 83.0628
90.8489 100 83.1547
91.8761 100 83.1569
92.9888 100 83.117
94.0769 100 83.0341
95.2964 100 82.9311
96.2703 100 82.4999
97.5545 100 82.1756
98.5646 100 81.9588
99.5202 100 81.4423
101.167 100 80.5084
102.127 100 80.4334
103.111 100 80.5074
104.299 100 80.3701
105.538 100 80.0946
106.746 100 80.15
107.898 100 80.0421
108.918 100 80.1675
109.907 100 79.5959
110.658 100 80.3949
111.668 100 79.6031
112.824 100 79.6031
113.834 100 80.3949
114.586 100 79.5959
115.574 100 80.1675
116.594 100 80.0421
117.747 100 80.15
118.954 100 80.0946
120.193 100 80.3701
121.382 100 80.5074
122.366 100 80.4334
123.326 100 80.5084
124.972 100 81.4423
125.928 100 81.9588
126.938 100 82.1756
128.222 100 82.4999
129.196 100 82.9311
130.415 100 83.0341
131.504 100 83.117
132.616 100 83.1569
133.644 100 83.1547
134.606 100 83.0628
135.632 100 82.9118
136.726 100 82.9008
137.832 100 82.9548
139.126 100 82.9522
140.319 100 82.467
141.512 100 82.9286
142.511 100 82.3736
143.518 100 82.9117
144.505 100 82.388
80.0206 100 83.516
81.0293 100 84.0787
81.9616 100 83.522
82.9181 100 84.0981
83.8718 100 83.5282
84.875 100 84.0366
85.9542 100 83.9509
87.0627 100 83.9523
88.1063 100 84.1307
89.2069 100 83.9908
90.3483 100 84.1205
91.3641 100 84.1395
92.4384 100 84.1386
93.5149 100 84.0888
94.6652 100 83.9769
95.7375 100 83.8186
97.0665 100 83.2881
98.5612 100 83.0498
99.4834 100 82.5135
100.548 100 81.6491
101.523 100 81.578
102.556 100 81.5037
103.747 100 81.3995
104.88 100 81.2459
105.876 100 81.0323
107.299 100 81.0406
108.416 100 81.1394
109.576 100 81.2498
110.579 100 81.4635
111.656 100 80.8232
112.837 100 80.8232
113.914 100 81.4635
114.916 100 81.2498
116.076 100 81.1394
117.193 100 81.0406
118.617 100 81.0323
119.613 100 81.2459
120.745 100 81.3995
121.936 100 81.5037
122.969 100 81.578
123.944 100 81.6491
125.009 100 82.5135
125.931 100 83.0498
127.426 100 83.2881
128.755 100 83.8186
129.827 100 83.9769
130.978 100 84.0888
132.054 100 84.1386
133.128 100 84.1395
134.144 100 84.1205
135.286 100 83.9908
136.386 100 84.1307
137.43 100 83.9523
138.538 100 83.9509
139.617 100 84.0366
140.621 100 83.5282
141.574 100 84.0981
142.531 100 83.522
143.463 100 84.0787
144.472 100 83.516
80.0574 100 84.61
81.1 100 85.2001
82.0239 100 84.6316
83.1128 100 85.1986
84.0325 100 84.7127
85.0716 100 85.1259
86.181 100 84.9982
87.4272 100 84.9664
88.546 100 85.1804
89.7363 100 85.1666
90.8054 100 85.1733
91.8307 100 85.1732
92.8821 100 85.2089
93.8832 100 85.2168
95.0063 100 85.0244
96.091 100 85.0542
96.6241 100 84.2559
97.6899 100 84.0147
99.6305 100 83.4761
100.535 100 82.7624
101.966 100 82.4843
[...]
POINT_DATA 1600
SCALARS mass double
LOOKUP_TABLE default
1
1
1
1
1
1
1
1
1
1
1
1
1
1
1
1
1
1
1
1
1
1
1
1
1
1
1
1
1
1
1
1
1
1
1
1
1
1
1
1
1
1
1
1
1
1
1
1
1
1
1
1
1
1
1
1
1
1
1
1
1
1
1
1
1
1
1
1
1
1
1
1
1
1
1
1
1
1
1
1
1
1
1
1
1
1
1
1
1
1
1
1
1
1
1
1
1
1
1
1
1
1
1
1
1
1
1
1
1
1
1
1
1
1
1
1
1
1
1
1
1
1
1
1
1
1
1
1
1
1
1
1
1
1
1
1
1
1
1
1
1
1
1
1
1
1
1
1
1
1
1
1
1
1
1
1
1
1
1
1
1
1
1
1
1
1
1
1
1
1
1
1
1
1
1
1
1
1
1
1
1
1
1
1
1
1
1
1
1
1
1
1
1
1
1
1
1
1
1
1
1
1
1
1
1
1
1
1
1
1
1
1
1
1
1
1
1
1
1
1
1
1
1
1
1
1
1
1
1
1
1
1
1
1
1
1
1
1
1
1
1
1
1
1
1
1
1
1
1
1
1
1
1
1
1
1
1
1
1
1
1
1
1
1
1
1
1
1
1
1
1
1
1
1
1
1
1
1
1
1
1
1
1
1
1
1
1
1
1
1
1
1
1
1
1
1
1
1
1
1
1
1
1
1
1
1
1
1
1
1
1
1
1
1
1
1
1
1
1
1
1
1
1
1
1
1
1
1
1
1
1
1
1
1
1
1
1
1
1
1
1
1
1
1
1
1
1
1
1
1
1
1
1
1
1
1
1
1
1
1
1
1
1
1
1
1
1
1
1
1
1
1
1
1
1
1
1
1
1
1
1
1
1
1
1
1
1
1
1
1
1
1
1
1
1
1
1
1
1
1
1
1
1
1
1
1
1
1
1
1
1
1
1
1
1
1
1
1
1
1
1
1
1
1
1
1
1
1
1
1
1
1
1
1
1
1
1
1
1
1
1
1
1
1
1
1
1
1
1
1
1
1
1
1
1
1
1
1
1
1
1
1
1
1
1
1
1
1
1
1
1
1
1
1
1
1
1
1
1
1
1
1
1
1
1
1
1
1
1
1
1
1
1
1
1
1
1
1
1
1
1
1
1
1
1
1
1
1
1
1
1
1
1
1
1
1
1
1
1
1
1
1
1
1
1
1
1
1
1
1
1
1
1
1
1
1
1
1
1
1
1
1
1
1
1
1
1
1
1
1
1
1
1
1
1
1
1
1
1
1
1
1
1
1
1
1
1
1
1
1
1
1
1
1
1
1
1
1
1
1
1
1
1
1
1
1
1
1
1
1
1
1
1
1
1
1
1
1
1
1
1
1
1
1
1
1
1
1
1
1
1
1
1
1
1
1
1
1
1
1
1
1
1
1
1
1
1
1
1
1
1
1
1
1
1
1
1
1
1
1
1
1
1
1
1
1
1
1
1
1
1
1
1
1
1
1
1
1
1
1
1
1
1
1
1
1
1
1
1
1
1
1
1
1
1
1
1
1
1
1
1
1
1
1
1
1
1
1
1
1
1
1
1
1
1
1
1
1
1
1
1
1
1
1
1
1
1
1
1
1
1
1
1
1
1
1
1
1
1
1
1
1
1
1
1
1
1
1
1
1
1
1
1
1
1
1
1
1
1
1
1
1
1
1
1
1
1
1
1
1
1
1
1
1
1
1
1
1
1
1
1
1
1
1
1
1
1
1
1
1
1
1
1
1
1
1
1
1
1
1
1
1
1
1
1
1
1
1
1
1
1
1
1
1
1
1
1
1
1
1
1
1
1
1
1
1
1
1
1
1
1
1
1
1
1
1
1
1
1
1
1
1
1
1
1
1
1
1
1
1
1
1
1
1
1
1
1
1
1
1
1
1
1
1
1
1
1
1
1
1
1
1
1
1
1
1
1
1
1
1
1
1
1
1
1
1
1
1
1
1
1
1
1
1
1
1
1
1
1
1
1
1
1
1
1
1
1
1
1
1
1
1
1
1
1
1
1
1
1
1
1
1
1
1
1
1
1
1
1
1
1
1
1
1
1
1
1
1
1
1
1
1
1
1
1
1
1
1
1
1
1
1
1
1
1
1
1
1
1
1
1
1
1
1
1
1
1
1
1
1
1
1
1
1
1
1
1
1
1
1
1
1
1
1
1
1
1
1
1
1
1
1
1
1
1
1
1
1
1
1
1
1
1
1
1
1
1
1
1
1
1
1
1
1
1
1
1
1
1
1
1
1
1
1
1
1
1
1
1
1
1
1
1
1
1
1
1
1
1
1
1
1
1
1
1
1
1
1
1
1
1
1
1
1
1
1
1
1
1
1
1
1
1
1
1
1
1
1
1
1
1
1
1
1
1
1
1
1
1
1
1
1
1
1
1
1
1
1
1
1
1
1
1
1
1
1
1
1
1
1
1
1
1
1
1
1
1
1
1
1
1
1
1
1
1
1
1
1
1
1
1
1
1
1
1
1
1
1
1
1
1
1
1
1
1
1
1
1
1
1
1
1
1
1
1
1
1
1
1
1
1
1
1
1
1
1
1
1
1
1
1
1
1
1
1
1
1
1
1
1
1
1
1
1
1
1
1
1
1
1
1
1
1
1
1
1
1
1
1
1
1
1
1
1
1
1
1
1
1
1
1
1
1
1
1
1
1
1
1
1
1
1
1
1
1
1
1
1
1
1
1
1
1
1
1
1
1
1
1
1
1
1
1
1
1
1
1
1
1
1
1
1
1
1
1
1
1
1
1
1
1
1
1
1
1
1
1
1
1
1
1
1
1
1
1
1
1
1
1
1
1
1
1
1
1
1
1
1
1
1
1
1
1
1
1
1
1
1
1
1
1
1
1
1
1
1
1
1
1
1
1
1
1
1
1
1
1
1
1
1
1
1
1
1
1
1
1
1
1
1
1
1
1
1
1
1
1
1
1
1
1
1
1
1
1
1
1
1
1
1
1
1
1
1
1
1
1
1
1
1
1
1
1
1
1
1
1
1
1
1
1
1
1
1
1
1
1
1
1
1
1
1
1
1
1
1
1
1
1
1
1
1
1
1
1
1
1
1
1
1
1
1
1
1
1
1
1
1
1
1
1
1
1
1
1
1
1
1
1
1
1
1
1
1
1
1
1
1
1
1
1
1
1
1
1
1
1
1
1
1
1
1
1
1
1
1
1
1
1
1
1
1
1
1
1
1
1
1
1
1
1
1
1
1
1
1
1
1
1
1
1
1
1
1
1
1
1
1
1
1
1
1
1
1
1
1
1
1
1
1
1
1
1
1
1
1
1
1
1
1
1
1
1
1
1
1
1
1
1
1
1
1
1
1
1
1
1
1
1
1
1
1
1
1
1
1
1
1
1
1
1
1
1
1
1
1
1
1
1
1
1
1
1
1
1
1
1
1
1
1
1
1
1
1
1
1
1
1
1
1
1
1
1
1
1
1
1
1
1
1
1
1
1
1
1
1
1
1
1
1
1
1
1
1
1
1
1
1
1
1
1
1
1
1
1
1
1
1
1
1
1
1
1
1
1
1
1
1
1
1
1
1
1
1
1
1
1
1
1
1
1
1
1
1
1
1
1
1
1
1
VECTORS force double
7.59558 0 -0.0766375
18.1119 0 2.30666
-16.3423 0 -51.7021
43.2879 0 -48.1396
2.82382 0 3.64
-22.6433 0 3.85449
-10.4791 0 -3.3317
27.4006 0 10.7117
3.11031 0 1.04291
-6.26774 0 19.0924
-12.9971 0 2.3682
-5.75565 0 -3.77235
-96.1084 0 15.9061
65.9285 0 14.8522
-14.5267 0 -69.1372
-20.8595 0 22.4419
15.7259 0 -19.6095
-73.2838 0 11.9775
82.7351 0 -75.3961
-8.23711 0 19.3669
5.23341 0 4.79903
0.0308907 0 -5.86017
-3.92559 0 5.63294
5.06408 0 7.72064
-0.159997 0 15.7385
-7.90378 0 7.37145
0.327585 0 5.65289
-20.8839 0 -21.5253
-4.81882 0 10.4735
-8.91862 0 10.6761
8.91862 0 10.6761
4.81882 0 10.4735
20.8839 0 -21.5253
-0.327585 0 5.65289
7.90378 0 7.37144
0.159997 0 15.7385
-5.06408 0 7.72064
3.92559 0 5.63294
-0.0308906 0 -5.86017
-5.23341 0 4.79903
8.23711 0 19.3669
-82.7351 0 -75.3961
73.2838 0 11.9775
-15.7259 0 -19.6095
20.8595 0 22.4419
14.5267 0 -69.1372
-65.9285 0 14.8522
96.1084 0 15.9061
5.75565 0 -3.77235
12.9971 0 2.3682
6.26774 0 19.0924
-3.11031 0 1.04291
-27.4006 0 10.7117
10.4791 0 -3.3317
22.6433 0 3.85449
-2.82382 0 3.64
-43.2879 0 -48.1396
16.3423 0 -51.7021
-18.1119 0 2.30666
-7.59558 0 -0.0766375
-3.21738 0 28.423
-38.1025 0 26.9025
19.4938 0 44.8367
-19.2356 0 15.0583
-29.4686 0 -18.4802
-13.7699 0 -7.08228
28.2013 0 -8.12926
1.61622 0 -6.27662
12.5741 0 4.33635
-11.5917 0 -19.6233
-9.04337 0 13.2117
6.13805 0 18.655
-32.2273 0 -14.5454
37.1313 0 -26.07
-136.823 0 54.6029
164.162 0 -43.5131
3.681 0 8.01783
-31.9043 0 69.9702
28.2661 0 20.2353
-10.7987 0 -14.6316
7.53357 0 -4.77656
6.6939 0 22.7203
2.77072 0 -11.7199
-1.16374 0 -11.2628
10.6843 0 -4.06098
-14.9021 0 -16.7497
-3.77735 0 -6.92716
26.6803 0 -0.325791
29.0696 0 13.9862
-3.13182 0 -16.6519
3.13182 0 -16.6519
-29.0696 0 13.9862
-26.6803 0 -0.325791
3.77735 0 -6.92716
14.9021 0 -16.7497
-10.6843 0 -4.06098
1.16374 0 -11.2628
-2.77072 0 -11.7198
-6.6939 0 22.7203
-7.53357 0 -4.77656
10.7987 0 -14.6316
-28.2661 0 20.2353
31.9043 0 69.9702
-3.681 0 8.01783
-164.162 0 -43.5132
136.823 0 54.6029
-37.1313 0 -26.07
32.2273 0 -14.5454
-6.13805 0 18.655
9.04337 0 13.2117
11.5917 0 -19.6233
-12.5741 0 4.33635
-1.61622 0 -6.27662
-28.2013 0 -8.12926
13.7699 0 -7.08228
29.4686 0 -18.4802
19.2356 0 15.0583
-19.4938 0 44.8367
38.1025 0 26.9025
3.21738 0 28.423
4.54324 0 -4.06622
2.19133 0 -6.60922
-1.4148 0 6.73551
19.5739 0 6.88928
-43.578 0 -15.5396
50.7535 0 27.065
9.76464 0 -25.8564
30.489 0 32.793
20.9688 0 6.05573
-5.66918 0 -18.1131
1.8919 0 25.3383
-1.86614 0 -16.1073
13.7424 0 -80.2039
11.3683 0 25.2635
-29.4645 0 -5.77482
39.6974 0 36.5555
-63.2494 0 -18.3058
11.9019 0 -20.2024
-2.88 0 -134.188
21.3654 0 -8.12173
-44.1706 0 -158.37
-10.5948 0 17.8374
-10.8825 0 5.32174
-13.7025 0 25.1048
8.00293 0 -1.66605
11.676 0 -26.2078
-2.29059 0 8.58071
-24.9157 0 -32.8494
8.82953 0 6.56084
2.4669 0 15.1711
-2.4669 0 15.1711
-8.82953 0 6.56084
24.9157 0 -32.8494
2.29059 0 8.58071
-11.676 0 -26.2078
-8.00293 0 -1.66605
13.7025 0 25.1048
10.8825 0 5.32174
10.5948 0 17.8374
44.1706 0 -158.37
-21.3654 0 -8.12173
2.88 0 -134.188
-11.9019 0 -20.2024
63.2494 0 -18.3058
-39.6974 0 36.5555
29.4645 0 -5.77482
-11.3683 0 25.2635
-13.7424 0 -80.2039
1.86614 0 -16.1073
-1.8919 0 25.3383
5.66918 0 -18.1131
-20.9688 0 6.05573
-30.489 0 32.793
-9.76464 0 -25.8564
-50.7535 0 27.065
43.578 0 -15.5396
-19.5739 0 6.88928
1.4148 0 6.73551
-2.19133 0 -6.60922
-4.54324 0 -4.06622
-0.746263 0 14.567
14.8553 0 -8.36477
-24.4878 0 1.71515
8.79699 0 32.3522
11.9899 0 -17.5299
-32.2239 0 59.3135
-63.6005 0 -7.22822
14.04 0 0.40502
-88.645 0 -21.2625
99.2576 0 -40.7368
34.8082 0 -36.459
-18.9825 0 -32.9024
-10.4397 0 49.0354
-27.2461 0 -3.16215
61.8887 0 -28.8024
24.115 0 -14.7991
14.7636 0 7.6042
-35.108 0 -76.4231
10.6434 0 18.9417
-34.4909 0 125.249
-73.7455 0 -64.4115
33.8676 0 116.058
49.5348 0 18.3923
-66.6209 0 10.9882
9.23728 0 -172.856
22.007 0 -72.1616
-7.07848 0 21.4428
-3.65208 0 -117.394
-0.134086 0 121.926
20.4504 0 -93.471
-20.4504 0 -93.471
0.134078 0 121.926
3.65208 0 -117.394
7.07848 0 21.4428
-22.007 0 -72.1616
-9.23728 0 -172.856
66.6209 0 10.9882
-49.5348 0 18.3923
-33.8676 0 116.058
73.7455 0 -64.4115
34.4909 0 125.249
-10.6434 0 18.9417
35.108 0 -76.4231
-14.7636 0 7.6042
-24.115 0 -14.7991
-61.8887 0 -28.8024
27.2461 0 -3.16215
10.4397 0 49.0354
18.9825 0 -32.9024
-34.8082 0 -36.459
-99.2576 0 -40.7368
88.645 0 -21.2625
-14.04 0 0.40502
63.6005 0 -7.22822
32.2239 0 59.3135
-11.9899 0 -17.5299
-8.79699 0 32.3522
24.4878 0 1.71515
-14.8553 0 -8.36477
0.746263 0 14.567
-3.3736 0 10.384
-6.62608 0 -14.2757
-0.343781 0 0.0981681
-10.7274 0 11.8501
-110.474 0 -44.9937
101.497 0 -43.4272
16.6224 0 7.25489
44.0681 0 -4.97999
-59.4685 0 78.8366
15.1406 0 -33.7037
-30.3047 0 -46.4214
-39.5916 0 15.2306
36.6473 0 17.9158
-49.987 0 42.3788
14.1645 0 -43.429
15.9908 0 -182.343
-73.9871 0 24.3405
101.656 0 75.947
-11.14 0 -83.2689
-19.0917 0 15.3776
49.7398 0 22.7672
-109.063 0 -53.5924
173.315 0 -102.93
-42.3993 0 60.6543
-17.5426 0 49.4599
4.36417 0 -26.8297
-98.2488 0 57.1604
53.724 0 38.4421
53.2799 0 -20.4224
1.04352 0 -3.10886
-1.04352 0 -3.10886
-53.2799 0 -20.4224
-53.7241 0 38.442
98.2488 0 57.1604
-4.36417 0 -26.8297
17.5426 0 49.4599
42.3993 0 60.6543
-173.315 0 -102.93
109.063 0 -53.5924
-49.7398 0 22.7672
19.0917 0 15.3776
11.14 0 -83.2689
-101.657 0 75.947
73.9871 0 24.3405
-15.9908 0 -182.343
-14.1645 0 -43.429
49.987 0 42.3788
-36.6473 0 17.9158
39.5916 0 15.2306
30.3047 0 -46.4214
-15.1406 0 -33.7037
59.4685 0 78.8366
-44.0681 0 -4.97999
-16.6224 0 7.25489
-101.497 0 -43.4272
110.474 0 -44.9937
10.7274 0 11.8501
0.343781 0 0.098168
6.62608 0 -14.2757
3.3736 0 10.384
18.4974 0 -9.20433
8.8312 0 6.10916
-30.6929 0 -29.81
38.8184 0 9.98831
7.23959 0 -60.3121
-48.2003 0 55.8383
15.5021 0 -22.3493
-41.6378 0 17.2661
28.4533 0 -30.2196
-80.4612 0 24.1643
-28.3562 0 19.2802
-45.8123 0 24.5697
65.0509 0 7.33683
-25.5727 0 3.47204
15.0427 0 1.69681
-38.3506 0 32.8967
-152.673 0 145.16
256.938 0 -74.7815
-99.9213 0 -4.02982
-43.377 0 23.7835
-47.5148 0 -2.34763
36.5144 0 95.7301
-78.0724 0 -7.93859
-91.5199 0 20.1605
150.737 0 -77.4068
92.1004 0 148.463
13.3056 0 21.0389
-39.1049 0 -166.073
6.07681 0 -29.0915
-4.2097 0 8.21183
4.20969 0 8.21184
-6.07689 0 -29.0915
39.1049 0 -166.073
-13.3056 0 21.0389
-92.1004 0 148.463
-150.737 0 -77.4068
91.5199 0 20.1605
78.0724 0 -7.93859
-36.5144 0 95.7301
47.5148 0 -2.34763
43.377 0 23.7835
99.9213 0 -4.02982
-256.938 0 -74.7815
152.673 0 145.16
38.3506 0 32.8967
-15.0427 0 1.69681
25.5727 0 3.47204
-65.0509 0 7.33683
45.8123 0 24.5697
28.3562 0 19.2802
80.4612 0 24.1643
-28.4533 0 -30.2196
41.6378 0 17.2661
-15.5021 0 -22.3493
48.2003 0 55.8383
-7.23959 0 -60.3121
-38.8184 0 9.98831
30.6929 0 -29.81
-8.8312 0 6.10916
-18.4974 0 -9.20433
-9.88424 0 14.6845
12.5923 0 13.6978
-31.7738 0 19.989
-22.1224 0 -18.0625
24.8969 0 50.5183
-2.86718 0 -0.272644
-16.7631 0 -8.86717
-15.9159 0 26.372
-62.4058 0 32.3408
-168.002 0 8.42471
169.931 0 20.303
81.489 0 9.04944
-9.03562 0 -2.54948
19.9607 0 -9.07578
-102.924 0 -115.515
110.936 0 86.8958
-60.6417 0 57.0784
22.6772 0 -48.4911
34.2267 0 101.604
-138.608 0 44.7049
69.2552 0 31.4454
157.731 0 -8.22408
-0.606769 0 -3.00239
-57.4278 0 -67.8967
-37.0631 0 -41.0523
-67.9777 0 -9.25621
92.0614 0 209.444
-25.4885 0 42.9954
-4.83949 0 -30.9083
11.8397 0 27.8158
-11.8396 0 27.8158
4.8395 0 -30.9084
25.4885 0 42.9955
-92.0614 0 209.444
67.9777 0 -9.25621
37.0631 0 -41.0523
57.4278 0 -67.8967
0.606765 0 -3.00238
-157.731 0 -8.22408
-69.2552 0 31.4454
138.608 0 44.7049
-34.2267 0 101.604
-22.6772 0 -48.4911
60.6417 0 57.0784
-110.936 0 86.8958
102.924 0 -115.515
-19.9607 0 -9.07578
9.03562 0 -2.54948
-81.489 0 9.04944
-169.931 0 20.303
168.002 0 8.42471
62.4058 0 32.3408
15.9159 0 26.372
16.7631 0 -8.86716
2.86718 0 -0.272644
-24.8969 0 50.5183
22.1224 0 -18.0625
31.7738 0 19.989
-12.5923 0 13.6978
9.88424 0 14.6845
9.88096 0 -9.89749
-9.74504 0 -4.43685
12.5638 0 -26.4094
51.6594 0 -28.0421
23.7199 0 27.1198
1.53394 0 -24.6599
7.44538 0 -35.4522
-26.5639 0 -8.15187
43.8736 0 -23.4662
13.1067 0 9.23014
-104.541 0 17.935
62.0206 0 19.1845
1.7549 0 8.45079
32.1661 0 13.804
-19.4977 0 -5.54263
-46.4474 0 66.4303
-153.631 0 -232.413
-58.3951 0 -89.8488
0.875998 0 -178.967
-133.413 0 28.4306
79.1411 0 -108.945
71.7596 0 -2.89717
9.92016 0 -0.141219
-39.9889 0 12.018
137.593 0 91.7089
29.4752 0 35.5609
-2.98648 0 -11.6063
-92.6789 0 -82.6122
120.934 0 13.3145
16.3127 0 -13.7204
-16.3127 0 -13.7204
-120.934 0 13.3145
92.6789 0 -82.6122
2.98649 0 -11.6063
-29.4752 0 35.5609
-137.593 0 91.7089
39.9889 0 12.0179
-9.92016 0 -0.14122
-71.7596 0 -2.89716
-79.141 0 -108.945
133.413 0 28.4306
-0.875994 0 -178.967
58.3951 0 -89.8488
153.631 0 -232.413
46.4474 0 66.4303
19.4977 0 -5.54263
-32.1661 0 13.804
-1.7549 0 8.45079
-62.0206 0 19.1845
104.541 0 17.935
-13.1067 0 9.23014
-43.8736 0 -23.4662
26.5639 0 -8.15187
-7.44538 0 -35.4522
-1.53394 0 -24.6599
-23.7199 0 27.1198
-51.6594 0 -28.0421
-12.5638 0 -26.4094
9.74504 0 -4.43685
-9.88096 0 -9.89749
8.90178 0 25.9936
-15.0732 0 -42.1709
-23.5539 0 32.929
-57.0318 0 12.8791
20.9493 0 -21.7878
-17.7655 0 -25.1664
20.5313 0 32.8758
-19.0355 0 32.0694
5.76514 0 10.2763
-28.7396 0 -61.62
-41.5421 0 -38.0038
38.901 0 -28.5414
-70.8335 0 -64.4223
119.717 0 -4.86155
-7.23837 0 17.8094
-95.9534 0 -77.7957
251.582 0 -101.11
95.7308 0 123.529
12.9686 0 109.207
24.2946 0 13.0041
75.065 0 52.9887
-9.20149 0 -4.03829
-78.5476 0 -20.0538
-344.966 0 -300.565
166.383 0 -30.9103
-115.285 0 -8.52232
-19.0577 0 11.8912
2.27924 0 32.6509
80.075 0 27.3639
-64.2971 0 26.6011
64.2971 0 26.6011
-80.075 0 27.3639
-2.27932 0 32.6509
19.0578 0 11.8912
115.285 0 -8.5223
-166.383 0 -30.9103
344.966 0 -300.565
78.5476 0 -20.0538
9.20149 0 -4.03829
-75.065 0 52.9887
-24.2946 0 13.0041
-12.9686 0 109.207
-95.7308 0 123.529
-251.582 0 -101.11
95.9534 0 -77.7957
7.23837 0 17.8094
-119.717 0 -4.86155
70.8335 0 -64.4223
-38.901 0 -28.5414
41.5421 0 -38.0038
28.7396 0 -61.62
-5.76514 0 10.2763
19.0355 0 32.0694
-20.5313 0 32.8758
17.7655 0 -25.1664
-20.9493 0 -21.7878
57.0318 0 12.8791
23.5539 0 32.929
15.0732 0 -42.1709
-8.90178 0 25.9936
-0.0859854 0 -11.1919
3.11868 0 13.9086
5.57545 0 -10.7282
6.26455 0 13.0585
0.380337 0 -37.9604
6.06223 0 -39.0239
-27.0921 0 -11.1687
-52.4521 0 -57.3023
38.1232 0 48.4472
31.7363 0 45.0915
-77.4068 0 38.3758
8.24963 0 28.2035
47.3997 0 58.2716
-124.342 0 -8.32979
25.4992 0 -50.705
-51.1033 0 161.727
47.1315 0 16.8603
-151.418 0 132.285
150.417 0 -96.7814
-34.6671 0 -164.774
-6.91106 0 -8.1596
-3.77213 0 4.85729
-26.9814 0 -24.3432
-27.246 0 115.361
23.6756 0 290.635
253.493 0 30.0235
21.6949 0 -45.6701
-6.79614 0 -73.8142
-37.5681 0 -73.2612
-26.9419 0 18.1575
26.942 0 18.1575
37.568 0 -73.2613
6.7961 0 -73.8142
-21.6949 0 -45.6701
-253.493 0 30.0235
-23.6754 0 290.635
27.246 0 115.361
26.9814 0 -24.3432
3.77213 0 4.85729
6.91106 0 -8.1596
34.6671 0 -164.774
-150.417 0 -96.7814
151.418 0 132.285
-47.1315 0 16.8603
51.1033 0 161.727
-25.4992 0 -50.705
124.342 0 -8.32979
-47.3997 0 58.2716
-8.24963 0 28.2035
77.4068 0 38.3758
-31.7363 0 45.0915
-38.1232 0 48.4472
52.4521 0 -57.3023
27.0921 0 -11.1687
-6.06223 0 -39.0239
-0.380337 0 -37.9604
-6.26455 0 13.0585
-5.57545 0 -10.7282
-3.11868 0 13.9086
0.0859851 0 -11.1919
-17.8635 0 -18.1711
-4.94031 0 31.2682
5.02835 0 11.7822
-37.3711 0 -29.7155
-191.652 0 -2.31035
143.19 0 32.3178
-81.527 0 -120.812
37.0027 0 40.7143
6.69293 0 0.137879
-88.9061 0 -20.7299
61.2643 0 -48.152
14.1873 0 -1.92641
-28.4991 0 -32.4954
-12.1982 0 0.669189
-154.506 0 47.0567
142.431 0 -41.2614
37.4654 0 -53.8591
-63.4863 0 -39.3713
67.9122 0 148.641
-65.4898 0 38.8233
62.3696 0 2.36427
-111.989 0 -41.0835
102.393 0 -32.0202
-92.2147 0 29.8642
37.2302 0 -15.7674
52.859 0 -64.904
-19.1548 0 48.8742
23.9498 0 53.7979
-194.131 0 -90.5353
-21.4251 0 -87.4972
21.4251 0 -87.4973
194.13 0 -90.5349
-23.9497 0 53.7978
19.1548 0 48.8741
-52.859 0 -64.904
-37.2301 0 -15.7674
92.2146 0 29.8641
-102.393 0 -32.0202
111.989 0 -41.0835
-62.3696 0 2.36428
65.4898 0 38.8234
-67.9122 0 148.641
63.4863 0 -39.3713
-37.4654 0 -53.8591
-142.431 0 -41.2614
154.506 0 47.0567
12.1982 0 0.669189
28.4991 0 -32.4954
-14.1873 0 -1.92641
-61.2643 0 -48.152
88.9061 0 -20.7299
-6.69293 0 0.137878
-37.0027 0 40.7143
81.527 0 -120.812
-143.19 0 32.3178
191.652 0 -2.31035
37.3711 0 -29.7155
-5.02835 0 11.7822
4.94031 0 31.2682
17.8635 0 -18.1711
4.94679 0 3.66195
44.0645 0 41.5036
-36.6641 0 -26.094
-136.131 0 12.6416
75.2309 0 -33.715
89.4578 0 52.3634
-117.414 0 7.83436
97.1605 0 78.4342
90.1225 0 14.2801
-230.819 0 2.68289
166.098 0 37.829
17.3805 0 31.3613
22.7542 0 19.8899
-42.4024 0 23.3787
16.8619 0 15.9173
24.8081 0 31.407
6.63733 0 62.6692
-173.873 0 -207.79
-84.1861 0 -133.589
-19.536 0 -76.5057
71.3601 0 199.744
-124.979 0 39.0564
158.523 0 67.158
-30.3399 0 21.1353
-48.9048 0 -94.4332
-61.3819 0 6.8651
47.7274 0 29.5831
-38.4688 0 15.6624
-32.8911 0 -254.466
235.983 0 40.4201
-235.983 0 40.4201
32.8911 0 -254.466
38.4688 0 15.6624
-47.7274 0 29.5831
61.3819 0 6.86511
48.9048 0 -94.4332
30.3399 0 21.1353
-158.523 0 67.158
124.979 0 39.0564
-71.3601 0 199.744
19.536 0 -76.5057
84.1861 0 -133.589
173.873 0 -207.79
-6.63734 0 62.6692
-24.8081 0 31.407
-16.8619 0 15.9173
42.4024 0 23.3787
-22.7542 0 19.8899
-17.3805 0 31.3613
-166.098 0 37.829
230.819 0 2.68289
-90.1225 0 14.2801
-97.1605 0 78.4342
117.414 0 7.83436
-89.4578 0 52.3634
-75.2309 0 -33.715
136.131 0 12.6416
36.6641 0 -26.094
-44.0645 0 41.5036
-4.94679 0 3.66195
15.6616 0 -2.49399
-28.1114 0 -27.5675
43.7528 0 8.64926
-64.3497 0 12.2737
104.572 0 26.7663
30.2569 0 43.355
13.2746 0 -93.0156
-56.4824 0 5.54733
115.797 0 -79.1947
-38.8877 0 -29.4236
-45.5012 0 -4.54765
52.4442 0 -3.4379
-30.0206 0 -30.3879
97.1604 0 0.00232193
6.51517 0 -66.259
-40.48 0 -9.10166
63.6938 0 14.7626
-13.6795 0 28.2702
261.839 0 209.672
81.3499 0 174.43
-53.1909 0 -15.0695
27.4513 0 25.6643
-187.673 0 -33.9875
139.489 0 -18.3962
72.5611 0 60.6693
44.9695 0 -0.384487
-41.4668 0 -4.01318
50.363 0 19.4186
-145.307 0 127.171
104.801 0 20.574
-104.802 0 20.5744
145.308 0 127.171
-50.363 0 19.4186
41.4668 0 -4.01319
-44.9695 0 -0.384518
-72.5611 0 60.6693
-139.489 0 -18.3962
187.673 0 -33.9875
-27.4513 0 25.6642
53.1908 0 -15.0695
-81.3499 0 174.43
-261.839 0 209.672
13.6795 0 28.2702
-63.6938 0 14.7626
40.48 0 -9.10166
-6.51517 0 -66.259
-97.1604 0 0.00232199
30.0206 0 -30.3879
-52.4442 0 -3.4379
45.5012 0 -4.54765
38.8877 0 -29.4236
-115.797 0 -79.1947
56.4824 0 5.54733
-13.2746 0 -93.0156
-30.2569 0 43.355
-104.572 0 26.7663
64.3497 0 12.2737
-43.7528 0 8.64926
28.1114 0 -27.5675
-15.6616 0 -2.49399
1.67029 0 14.0294
5.59568 0 -17.2898
-7.44971 0 7.63392
-60.1871 0 -7.55065
49.2814 0 -90.9475
-48.3137 0 88.0669
-65.4142 0 -10.4433
11.712 0 99.689
-84.8346 0 31.037
37.5158 0 -3.2288
75.5311 0 -12.4151
-10.231 0 22.1826
-27.6338 0 -63.8835
-12.9057 0 37.0034
56.3154 0 19.6878
-79.733 0 -46.4809
107.887 0 59.2075
-155.828 0 14.0157
122.515 0 -108.852
-20.8684 0 30.014
41.2007 0 23.0295
38.305 0 -27.9755
21.907 0 -18.614
-227.93 0 -1.12884
88.7714 0 -91.8506
-11.3968 0 40.3246
29.7789 0 -68.0458
6.3333 0 2.52254
-22.1211 0 193.95
126.812 0 -27.7257
-126.812 0 -27.7259
22.1211 0 193.95
-6.33329 0 2.52257
-29.7789 0 -68.0458
11.3968 0 40.3246
-88.7714 0 -91.8506
227.929 0 -1.12884
-21.907 0 -18.614
-38.305 0 -27.9755
-41.2007 0 23.0295
20.8684 0 30.014
-122.515 0 -108.852
155.828 0 14.0157
-107.887 0 59.2074
79.733 0 -46.4809
-56.3154 0 19.6878
12.9057 0 37.0034
27.6338 0 -63.8835
10.231 0 22.1826
-75.5311 0 -12.4151
-37.5158 0 -3.2288
84.8346 0 31.037
-11.712 0 99.689
65.4142 0 -10.4433
48.3137 0 88.0669
-49.2814 0 -90.9475
60.1871 0 -7.55065
7.44971 0 7.63392
-5.59568 0 -17.2898
-1.67029 0 14.0294
8.05577 0 10.4473
16.6848 0 -145.87
-60.1297 0 29.6605
2.78586 0 -31.3349
-43.9113 0 -47.4561
16.9723 0 -25.178
-388.884 0 -14.2573
299.793 0 -90.8739
-8.60233 0 -60.6803
-33.001 0 -21.1163
-78.8784 0 -2.72022
116.677 0 -44.438
-72.7008 0 -48.5555
-19.5337 0 -22.4208
17.7599 0 -8.46717
0.107472 0 48.3847
-92.2501 0 -26.9446
55.7138 0 -138.224
-4.31485 0 61.9622
10.1082 0 -18.641
-16.0147 0 -27.8934
-15.0147 0 -49.314
17.6432 0 20.6822
144.004 0 52.1437
36.2295 0 24.0236
-40.4117 0 63.1514
-128.317 0 -74.185
-74.0055 0 -47.3774
-91.4684 0 -41.9346
154.372 0 -80.9634
-154.372 0 -80.9635
91.4687 0 -41.9347
74.0053 0 -47.3775
128.317 0 -74.1849
40.4117 0 63.1514
-36.2295 0 24.0237
-144.004 0 52.1438
-17.6432 0 20.6822
15.0147 0 -49.314
16.0147 0 -27.8933
-10.1082 0 -18.641
4.31484 0 61.9622
-55.7138 0 -138.224
92.2501 0 -26.9446
-0.107472 0 48.3847
-17.7599 0 -8.46717
19.5337 0 -22.4208
72.7008 0 -48.5555
-116.677 0 -44.438