# vtk DataFile Version 3.0
SiWiRVisFile
ASCII
DATASET UNSTRUCTURED_GRID
POINTS 1600 DOUBLE
76.2817 100 72.1521
74.5475 100 72.1711
75.4359 100 72.8119
77.2419 100 72.5073
78.6383 100 72.7986
79.4127 100 73.6165
80.5294 100 73.1849
81.4398 100 73.7342
82.4448 100 74.1245
82.2476 100 72.6474
92.8636 100 64.6438
91.5998 100 64.4522
92.5052 100 65.7546
90.5412 100 64.8434
82.573 100 65.1999
89.7162 100 56.9778
91.487 100 56.3562
90.2307 100 54.1694
85.7026 100 46.7461
93.8704 100 51.284
108.208 100 27.6411
108.13 100 25.8437
106.906 100 25.6483
107.597 100 24.5274
106.301 100 26.468
111.31 100 27.5672
110.657 100 18.1603
113.793 100 18.1215
110.496 100 21.4172
110.973 100 20.4314
112.119 100 20.2975
113.494 100 20.645
111.429 100 19.3028
114.242 100 19.603
114.695 100 24.7359
118.303 100 27.1599
116.71 100 23.8633
116.313 100 26.1541
115.426 100 27.0435
116.041 100 27.9527
133.309 100 52.4376
138.79 100 46.7461
131.399 100 54.4806
133.545 100 55.668
135.409 100 54.4866
135.201 100 67.4604
133.834 100 64.2848
134.291 100 66.7375
132.753 100 64.2965
133.134 100 65.2967
141.607 100 72.5886
140.813 100 74.1478
142.152 100 73.7097
143.178 100 73.3126
145.214 100 73.648
146.27 100 73.2706
147.206 100 72.7617
149.272 100 72.6593
150.698 100 71.5471
148.107 100 72.1159
73.5127 100 72.7974
74.4925 100 73.3853
76.5368 100 73.3221
77.5281 100 73.9806
78.4368 100 74.5086
80.2694 100 74.2665
81.3965 100 74.7985
82.6189 100 75.1937
83.4628 100 74.4428
85.2977 100 75.3034
86.4923 100 75.2296
92.2408 100 63.4551
91.4397 100 65.61
91.2581 100 61.8176
90.8001 100 57.3716
91.1121 100 62.9904
92.0088 100 55.3635
91.367 100 53.9526
92.51 100 54.1859
96.2214 100 51.5795
107.487 100 26.6529
95.6785 100 34.6912
106.746 100 39.6847
108.861 100 24.2212
109.254 100 25.527
111.535 100 26.4854
111.415 100 25.4187
110.382 100 25.3623
106.227 100 14.5066
111.543 100 21.5879
112.559 100 21.2261
118.72 100 14.5891
113.396 100 22.8816
115.599 100 23.1982
115.09 100 25.8962
115.857 100 24.8222
114.736 100 22.5073
119.364 100 39.7066
128.823 100 34.6788
116.88 100 27.2768
127.404 100 52.0164
129.269 100 52.641
132.316 100 51.8224
134.728 100 55.5443
133.576 100 63.1799
134.05 100 56.6408
132.1 100 60.5715
134.171 100 65.6774
131.825 100 63.7919
138.603 100 75.2377
139.715 100 74.8863
140.845 100 75.3122
141.86 100 74.8921
143.042 100 74.5765
144.184 100 74.15
146.229 100 74.367
147.151 100 73.8596
148.233 100 73.2564
150.187 100 73.4003
151.202 100 72.8035
73.4957 100 73.8578
74.5025 100 74.4765
75.4275 100 73.9657
76.387 100 74.3672
77.3776 100 74.9856
79.3339 100 74.9556
80.5081 100 75.3162
81.7402 100 75.882
82.7076 100 76.3836
83.7184 100 75.9073
85.9861 100 76.2138
84.8997 100 77.4364
87.8378 100 77.0802
92.2715 100 62.3405
89.9666 100 60.9478
92.8525 100 59.3495
92.5352 100 56.3664
93.2072 100 55.4772
93.727 100 53.8164
95.1181 100 51.8297
96.8448 100 50.6739
104.663 100 39.7377
105.694 100 39.3071
106.858 100 40.7757
96.6465 100 36.9828
107.942 100 40.051
107.382 100 38.1879
106.182 100 38.3752
110.858 100 22.56
112.449 100 23.5223
112.338 100 22.3579
113.543 100 21.74
122.162 100 39.1714
117.376 100 36.8522
118.127 100 39.0143
121.161 100 39.7855
118.45 100 40.3324
119.547 100 40.7622
120.703 100 40.8705
126.737 100 51.1181
131.94 100 53.5075
130.565 100 53.5627
133.591 100 54.5582
132.372 100 54.9187
132.648 100 57.8703
132.277 100 58.9675
132.253 100 62.798
137.252 100 76.1144
138.297 100 76.6006
139.635 100 76.0461
140.704 100 76.4405
141.755 100 75.9523
142.776 100 75.6059
143.968 100 75.2399
145.052 100 74.7688
147.128 100 75.0136
148.169 100 74.5155
149.086 100 73.8732
150.215 100 74.7502
151.174 100 74.152
73.5599 100 75.1128
74.55 100 75.6364
75.4501 100 75.0557
76.4268 100 75.5167
78.4951 100 75.6278
79.5321 100 76.0359
80.8451 100 76.5072
81.8981 100 77.035
83.8382 100 77.0438
84.7159 100 76.3927
85.0699 100 78.5661
86.5191 100 77.112
87.0576 100 76.2011
92.2292 100 61.2394
91.239 100 60.7782
90.4786 100 59.8781
93.195 100 57.3529
92.1103 100 57.4452
93.9756 100 56.4787
94.2496 100 55.2623
94.4316 100 52.8924
97.4518 100 51.8582
104.721 100 38.5928
104.808 100 43.8269
105.799 100 40.4101
105.948 100 41.4471
108.322 100 42.5287
110.116 100 41.8856
108.271 100 38.8912
112.42 100 24.8391
114.357 100 23.6095
114.055 100 36.1988
115.181 100 41.4495
116.587 100 40.7994
117.711 100 41.1615
120.206 100 41.8065
118.856 100 41.6519
119.602 100 38.3528
126.325 100 52.2506
129.305 100 53.7883
130.285 100 54.8683
132.244 100 55.9717
131.979 100 57.123
131.533 100 58.2025
131.3 100 59.3854
131.752 100 61.661
130.952 100 62.5755
137.387 100 74.9785
138.583 100 77.6779
139.68 100 77.8161
140.736 100 77.6174
141.787 100 77.0815
143.035 100 76.7287
144.019 100 76.3623
144.943 100 75.9035
145.992 100 75.4159
148.057 100 75.6139
149.211 100 75.1088
150.087 100 75.9329
151.249 100 75.3917
73.5106 100 76.2645
74.3957 100 76.9137
75.5073 100 76.1533
77.3505 100 76.0757
78.7224 100 76.7819
79.7742 100 77.134
80.913 100 77.5988
82.004 100 78.1426
82.8302 100 77.4948
84.045 100 78.126
85.2631 100 80.4775
88.548 100 78.0489
88.2636 100 76.0106
94.9091 100 58.5938
91.7976 100 59.6942
92.157 100 58.5476
95.33 100 57.4342
95.261 100 56.0711
95.1399 100 53.83
96.2129 100 54.0951
95.5464 100 52.856
103.105 100 48.8167
104.754 100 42.6666
107.352 100 43.0866
106.861 100 42.0255
108.292 100 43.6241
109.466 100 42.9221
110.447 100 43.1216
107.919 100 41.0881
110.471 100 26.701
109.713 100 27.6506
116.101 100 39.6281
113.026 100 41.7214
114.507 100 42.6373
116.807 100 41.7942
117.307 100 39.8865
117.974 100 42.1643
118.054 100 43.5136
123.109 100 48.4591
128.495 100 51.7719
128.228 100 52.9003
128.819 100 54.8786
130.974 100 55.7008
130.86 100 57.0228
129.956 100 57.6664
130.419 100 61.7039
130.938 100 60.6869
137.423 100 77.3381
137.7 100 78.4072
140.079 100 79.8006
140.454 100 78.7515
141.54 100 78.2516
142.783 100 77.863
143.92 100 77.4182
144.895 100 76.9939
145.87 100 76.5311
146.998 100 76.041
148.917 100 76.4467
149.92 100 77.0532
150.958 100 76.6062
73.2374 100 77.3476
74.554 100 78.0424
75.5768 100 77.3807
76.4136 100 76.7513
77.6742 100 77.1434
78.6773 100 77.9696
79.9053 100 78.3713
81.1086 100 78.7781
82.1216 100 79.2248
83.0738 100 78.6633
83.9882 100 79.1486
85.9931 100 78.0455
88.3533 100 79.1045
87.572 100 75.1905
89.3477 100 75.4906
93.7376 100 58.5775
96.0736 100 58.3189
97.1882 100 57.8932
96.2533 100 56.9185
95.4208 100 54.922
96.8707 100 52.9776
98.8006 100 52.1004
103.314 100 47.7177
104.624 100 46.2077
106.002 100 43.1025
106.82 100 44.0201
108.331 100 45.7831
109.424 100 43.9316
111.867 100 41.8457
111.005 100 41.2053
114.31 100 40.7261
113.409 100 42.9939
115.59 100 42.9966
115.364 100 44.0188
117.068 100 42.8694
118.935 100 42.7509
119.098 100 43.9139
122.476 100 47.4613
125.602 100 53.4918
127.145 100 53.1518
128.121 100 53.9413
129.983 100 55.9296
128.302 100 57.7447
129.439 100 58.865
130.483 100 58.6717
136.29 100 75.5558
139.377 100 71.4027
137.171 100 79.3189
139.03 100 78.7804
141.369 100 79.3163
142.437 100 78.9381
143.229 100 79.674
143.979 100 78.8432
144.804 100 78.0125
145.796 100 77.6049
146.769 100 77.2601
147.8 100 76.8644
148.638 100 77.624
149.666 100 78.2592
150.76 100 77.787
72.3182 100 78.2195
73.6504 100 78.6339
75.5903 100 78.5108
76.5417 100 77.934
77.5863 100 78.3852
77.5813 100 80.6993
80.057 100 79.478
81.0548 100 79.952
82.0851 100 80.5881
83.014 100 79.8964
86.3027 100 80.5321
87.148 100 78.1312
88.7863 100 80.2568
88.659 100 74.7122
94.5042 100 59.5687
94.2482 100 57.5573
95.9447 100 59.5543
98.1025 100 58.6233
96.6792 100 55.7015
97.1595 100 54.6705
98.178 100 52.9394
100.159 100 53.0141
104.374 100 48.1456
105.88 100 44.3945
109.702 100 46.1602
108.601 100 44.6852
105.481 100 48.2852
109.688 100 45.0119
104.938 100 49.3537
106.707 100 48.2923
119.504 100 49.7425
117.22 100 49.1658
115.056 100 45.0696
115.917 100 49.3473
116.765 100 46.3967
116.151 100 44.9228
117.051 100 44.0945
121.336 100 48.2547
122.861 100 50.3889
126.432 100 54.1633
127.34 100 54.722
128.906 100 55.9909
128.099 100 56.7321
127.937 100 58.8175
130.256 100 59.7779
129.561 100 60.6553
136.479 100 74.3903
130.553 100 78.4069
138.245 100 79.5738
141.128 100 80.4552
142.254 100 79.992
143.169 100 80.8512
144.276 100 80.1016
145.43 100 79.395
146.554 100 80.006
146.652 100 78.5137
147.596 100 78.0991
148.573 100 78.7565
150.781 100 78.9228
151.74 100 78.2158
72.6803 100 79.3518
73.6137 100 79.8135
74.5599 100 79.2683
75.4693 100 79.79
76.4651 100 79.0745
76.5441 100 80.182
77.6752 100 79.4837
80.0935 100 80.8071
81.1804 100 81.2542
82.504 100 81.6041
83.4792 100 80.8241
84.0686 100 81.9602
85.8623 100 79.495
85.5401 100 81.4501
84.4873 100 83.2202
90.1135 100 79.318
95.6639 100 61.4993
96.9369 100 58.9581
98.8967 100 56.6491
98.1351 100 57.3466
98.5392 100 55.4225
98.0512 100 54.1229
103.82 100 49.5357
105.245 100 45.2416
107.55 100 44.77
108.904 100 46.8212
107.257 100 46.2782
104.429 100 50.316
105.709 100 50.3779
107.86 100 51.5473
118.037 100 49.9059
120.391 100 50.3153
120.91 100 51.3643
117.813 100 46.7543
117.021 100 47.5171
117.621 100 45.6811
118.069 100 44.6153
122.188 100 49.3422
125.426 100 54.6058
127.967 100 55.5287
126.977 100 56.0266
126.351 100 56.9139
126.923 100 58.1828
128.931 100 59.8086
131.364 100 77.5388
140.496 100 82.55
139.892 100 80.9394
138.787 100 80.5414
140.882 100 81.5117
141.641 100 82.3133
142.018 100 81.1177
144.619 100 81.202
145.667 100 81.7005
145.57 100 80.5996
147.555 100 80.3843
147.671 100 79.2719
148.694 100 79.8697
149.857 100 79.4138
150.764 100 79.9902
151.874 100 79.3841
72.5477 100 80.7058
73.6318 100 81.069
74.5321 100 80.4345
75.7219 100 80.9203
76.7744 100 82.6307
74.8153 100 83.9925
76.6569 100 81.4652
78.706 100 81.3694
79.6254 100 81.9079
78.68 100 82.6564
81.6328 100 82.2183
81.7544 100 83.4304
82.792 100 82.6016
83.2604 100 83.5327
85.3581 100 82.5205
89.3713 100 78.6498
96.7999 100 61.5414
97.037 100 60.0537
99.1061 100 57.9316
100.691 100 56.1126
99.0906 100 53.6187
103.31 100 50.4406
[...]
POINT_DATA 1600
SCALARS mass double
LOOKUP_TABLE default
1
1
1
1
1
1
1
1
1
1
1
1
1
1
1
1
1
1
1
1
1
1
1
1
1
1
1
1
1
1
1
1
1
1
1
1
1
1
1
1
1
1
1
1
1
1
1
1
1
1
1
1
1
1
1
1
1
1
1
1
1
1
1
1
1
1
1
1
1
1
1
1
1
1
1
1
1
1
1
1
1
1
1
1
1
1
1
1
1
1
1
1
1
1
1
1
1
1
1
1
1
1
1
1
1
1
1
1
1
1
1
1
1
1
1
1
1
1
1
1
1
1
1
1
1
1
1
1
1
1
1
1
1
1
1
1
1
1
1
1
1
1
1
1
1
1
1
1
1
1
1
1
1
1
1
1
1
1
1
1
1
1
1
1
1
1
1
1
1
1
1
1
1
1
1
1
1
1
1
1
1
1
1
1
1
1
1
1
1
1
1
1
1
1
1
1
1
1
1
1
1
1
1
1
1
1
1
1
1
1
1
1
1
1
1
1
1
1
1
1
1
1
1
1
1
1
1
1
1
1
1
1
1
1
1
1
1
1
1
1
1
1
1
1
1
1
1
1
1
1
1
1
1
1
1
1
1
1
1
1
1
1
1
1
1
1
1
1
1
1
1
1
1
1
1
1
1
1
1
1
1
1
1
1
1
1
1
1
1
1
1
1
1
1
1
1
1
1
1
1
1
1
1
1
1
1
1
1
1
1
1
1
1
1
1
1
1
1
1
1
1
1
1
1
1
1
1
1
1
1
1
1
1
1
1
1
1
1
1
1
1
1
1
1
1
1
1
1
1
1
1
1
1
1
1
1
1
1
1
1
1
1
1
1
1
1
1
1
1
1
1
1
1
1
1
1
1
1
1
1
1
1
1
1
1
1
1
1
1
1
1
1
1
1
1
1
1
1
1
1
1
1
1
1
1
1
1
1
1
1
1
1
1
1
1
1
1
1
1
1
1
1
1
1
1
1
1
1
1
1
1
1
1
1
1
1
1
1
1
1
1
1
1
1
1
1
1
1
1
1
1
1
1
1
1
1
1
1
1
1
1
1
1
1
1
1
1
1
1
1
1
1
1
1
1
1
1
1
1
1
1
1
1
1
1
1
1
1
1
1
1
1
1
1
1
1
1
1
1
1
1
1
1
1
1
1
1
1
1
1
1
1
1
1
1
1
1
1
1
1
1
1
1
1
1
1
1
1
1
1
1
1
1
1
1
1
1
1
1
1
1
1
1
1
1
1
1
1
1
1
1
1
1
1
1
1
1
1
1
1
1
1
1
1
1
1
1
1
1
1
1
1
1
1
1
1
1
1
1
1
1
1
1
1
1
1
1
1
1
1
1
1
1
1
1
1
1
1
1
1
1
1
1
1
1
1
1
1
1
1
1
1
1
1
1
1
1
1
1
1
1
1
1
1
1
1
1
1
1
1
1
1
1
1
1
1
1
1
1
1
1
1
1
1
1
1
1
1
1
1
1
1
1
1
1
1
1
1
1
1
1
1
1
1
1
1
1
1
1
1
1
1
1
1
1
1
1
1
1
1
1
1
1
1
1
1
1
1
1
1
1
1
1
1
1
1
1
1
1
1
1
1
1
1
1
1
1
1
1
1
1
1
1
1
1
1
1
1
1
1
1
1
1
1
1
1
1
1
1
1
1
1
1
1
1
1
1
1
1
1
1
1
1
1
1
1
1
1
1
1
1
1
1
1
1
1
1
1
1
1
1
1
1
1
1
1
1
1
1
1
1
1
1
1
1
1
1
1
1
1
1
1
1
1
1
1
1
1
1
1
1
1
1
1
1
1
1
1
1
1
1
1
1
1
1
1
1
1
1
1
1
1
1
1
1
1
1
1
1
1
1
1
1
1
1
1
1
1
1
1
1
1
1
1
1
1
1
1
1
1
1
1
1
1
1
1
1
1
1
1
1
1
1
1
1
1
1
1
1
1
1
1
1
1
1
1
1
1
1
1
1
1
1
1
1
1
1
1
1
1
1
1
1
1
1
1
1
1
1
1
1
1
1
1
1
1
1
1
1
1
1
1
1
1
1
1
1
1
1
1
1
1
1
1
1
1
1
1
1
1
1
1
1
1
1
1
1
1
1
1
1
1
1
1
1
1
1
1
1
1
1
1
1
1
1
1
1
1
1
1
1
1
1
1
1
1
1
1
1
1
1
1
1
1
1
1
1
1
1
1
1
1
1
1
1
1
1
1
1
1
1
1
1
1
1
1
1
1
1
1
1
1
1
1
1
1
1
1
1
1
1
1
1
1
1
1
1
1
1
1
1
1
1
1
1
1
1
1
1
1
1
1
1
1
1
1
1
1
1
1
1
1
1
1
1
1
1
1
1
1
1
1
1
1
1
1
1
1
1
1
1
1
1
1
1
1
1
1
1
1
1
1
1
1
1
1
1
1
1
1
1
1
1
1
1
1
1
1
1
1
1
1
1
1
1
1
1
1
1
1
1
1
1
1
1
1
1
1
1
1
1
1
1
1
1
1
1
1
1
1
1
1
1
1
1
1
1
1
1
1
1
1
1
1
1
1
1
1
1
1
1
1
1
1
1
1
1
1
1
1
1
1
1
1
1
1
1
1
1
1
1
1
1
1
1
1
1
1
1
1
1
1
1
1
1
1
1
1
1
1
1
1
1
1
1
1
1
1
1
1
1
1
1
1
1
1
1
1
1
1
1
1
1
1
1
1
1
1
1
1
1
1
1
1
1
1
1
1
1
1
1
1
1
1
1
1
1
1
1
1
1
1
1
1
1
1
1
1
1
1
1
1
1
1
1
1
1
1
1
1
1
1
1
1
1
1
1
1
1
1
1
1
1
1
1
1
1
1
1
1
1
1
1
1
1
1
1
1
1
1
1
1
1
1
1
1
1
1
1
1
1
1
1
1
1
1
1
1
1
1
1
1
1
1
1
1
1
1
1
1
1
1
1
1
1
1
1
1
1
1
1
1
1
1
1
1
1
1
1
1
1
1
1
1
1
1
1
1
1
1
1
1
1
1
1
1
1
1
1
1
1
1
1
1
1
1
1
1
1
1
1
1
1
1
1
1
1
1
1
1
1
1
1
1
1
1
1
1
1
1
1
1
1
1
1
1
1
1
1
1
1
1
1
1
1
1
1
1
1
1
1
1
1
1
1
1
1
1
1
1
1
1
1
1
1
1
1
1
1
1
1
1
1
1
1
1
1
1
1
1
1
1
1
1
1
1
1
1
1
1
1
1
1
1
1
1
1
1
1
1
1
1
1
1
1
1
1
1
1
1
1
1
1
1
1
1
1
1
1
1
1
1
1
1
1
1
1
1
1
1
1
1
1
1
1
1
1
1
1
1
1
1
1
1
1
1
1
1
1
1
1
1
1
1
1
1
1
1
1
1
1
1
1
1
1
1
1
1
1
1
1
1
1
1
1
1
1
1
1
1
1
1
1
1
1
1
1
1
1
1
1
1
1
1
1
1
1
1
1
1
1
1
1
1
1
1
1
1
1
1
1
1
1
1
1
1
1
1
1
1
1
1
1
1
1
1
1
1
1
1
1
1
1
1
1
1
1
1
1
1
1
1
1
1
1
1
1
1
1
1
1
1
1
1
1
1
1
1
1
1
VECTORS force double
-52.5049 0 -27.4168
-15.8725 0 13.8084
6.34607 0 31.2921
89.928 0 20.0404
-8.61939 0 5.28906
-15.9763 0 1.60208
-33.7333 0 -12.5401
3.74761 0 -19.7264
-23.0387 0 -14.7322
-6.58716 0 15.0469
-21.4246 0 -1.59653
15.2497 0 0.633478
20.7477 0 -9.19922
10.5236 0 4.64647
0 0 0
7.77013 0 1.84412
-43.6848 0 20.3175
7.87884 0 -1.02345
0 0 0
10.0956 0 6.57367
-1.53038 0 -12.1404
32.2049 0 -58.962
71.3694 0 -67.4492
8.91447 0 15.1941
-36.7973 0 68.2097
-13.092 0 -2.99666
5.07466 0 7.78776
1.39608 0 4.60737
-30.6429 0 13.7606
22.3339 0 -9.04188
-38.1939 0 -60.2144
4.30723 0 -23.5056
-2.58376 0 13.9711
-8.89969 0 5.52987
10.7106 0 0.8044
-8.16972 0 0.51074
-18.3825 0 3.1502
-17.6363 0 10.149
6.69385 0 -25.9054
-10.2144 0 17.8933
-9.05665 0 -2.52054
0 0 0
-46.2422 0 -0.719071
-11.7467 0 -7.98258
-8.55882 0 10.3396
-6.51392 0 -5.52561
10.5892 0 13.4703
8.19702 0 30.4415
9.70324 0 -16.2945
10.3603 0 11.1727
6.57235 0 14.2643
10.0498 0 18.0423
-13.9039 0 16.4482
13.0722 0 16.6837
5.02289 0 14.0835
-50.076 0 -11.572
25.8056 0 -14.3866
-12.6185 0 18.6317
1.89376 0 11.2666
14.3788 0 10.2079
16.5124 0 -34.1633
-7.81039 0 -27.4904
-22.0978 0 -22.5382
-40.3299 0 -115.275
-65.6057 0 -35.4822
24.7672 0 2.84339
67.8386 0 -9.69041
2.78703 0 27.6843
24.6178 0 16.4638
5.83424 0 15.7684
-25.0855 0 -0.603929
-12.8617 0 14.7297
-25.1557 0 -19.5651
2.03431 0 61.6504
13.8979 0 -10.9476
22.8652 0 -5.84015
15.6931 0 -11.0546
3.70141 0 7.7826
2.01589 0 12.3169
2.90082 0 21.2613
-45.3057 0 48.4236
0.0785212 0 0.185886
3.43844 0 -7.87962
-8.15263 0 14.3863
-5.77584 0 -4.80459
15.4553 0 9.96081
61.4035 0 -19.5046
-61.5933 0 9.71098
0 0 0
4.40019 0 -0.780107
33.8772 0 65.3086
0 0 0
4.7355 0 -4.45567
2.90192 0 17.8007
17.5571 0 -6.69686
-5.65978 0 3.52674
-22.3739 0 2.53122
-3.10593 0 -36.0177
0 0 0
11.0968 0 -25.0993
12.3554 0 17.675
17.1894 0 -1.28668
6.61799 0 7.03973
-14.5238 0 -2.98329
-14.9011 0 8.40721
7.4016 0 -1.18453
-15.6694 0 -3.83164
0.534303 0 -32.1526
-38.875 0 -6.49796
-0.0748032 0 12.4
11.9843 0 10.4061
-26.6195 0 -2.39845
21.7716 0 -46.7678
3.1256 0 -45.5614
-36.3436 0 -22.7841
-54.247 0 3.26489
81.9541 0 15.8855
-38.6003 0 -16.7619
-1.12361 0 10.6256
-13.6373 0 6.15941
5.25605 0 52.2358
-43.2563 0 31.3706
-1.45154 0 -57.1721
53.5149 0 67.8595
7.25661 0 66.0299
135.349 0 18.696
-63.1651 0 72.2534
-10.9762 0 -10.4558
59.2177 0 -33.0944
-11.0203 0 -7.89842
-65.2447 0 -34.0445
24.9751 0 33.4531
-157.417 0 23.9647
-13.4636 0 7.4779
20.6044 0 -8.08418
34.0798 0 16.1063
51.5495 0 16.4811
-33.9164 0 6.84332
3.49688 0 4.30414
-12.7845 0 3.68589
9.01426 0 3.35954
9.82292 0 0.605583
-26.1186 0 24.4668
2.89077 0 14.2937
-0.0785212 0 -0.185886
-17.9823 0 -65.0295
-10.9848 0 8.3646
26.9493 0 -27.8395
10.2965 0 -19.9741
2.83153 0 -2.40127
17.3363 0 4.98897
-0.163088 0 26.7206
-8.14998 0 5.15123
0.117951 0 0.339726
4.2964 0 20.5065
0.527893 0 4.54159
-4.52186 0 0.384576
7.07288 0 31.6739
8.9514 0 -39.7091
-2.88438 0 11.1288
-3.05813 0 1.43916
-0.117894 0 19.2833
-7.19169 0 3.45622
41.2432 0 -23.162
64.9328 0 92.0477
45.9159 0 2.62476
1.10857 0 -22.3399
7.67198 0 15.3423
-2.5003 0 -11.5493
-3.15992 0 -11.0263
12.6661 0 7.86644
-20.5414 0 43.7509
22.2778 0 25.0111
1.44875 0 8.39153
29.1973 0 22.1576
2.25351 0 -63.9073
-6.67645 0 -15.2353
50.2134 0 23.5348
29.2499 0 -7.48014
-11.9315 0 -3.33241
4.53357 0 -7.81713
-40.7897 0 15.6424
13.2111 0 -19.6286
-10.8073 0 8.26501
-39.1837 0 22.2479
26.2974 0 -0.251379
-21.2956 0 -9.04068
-101.867 0 -2.95395
-13.7866 0 -9.72656
24.2719 0 -47.0721
-30.7554 0 26.4535
31.5949 0 57.5572
60.39 0 -26.0159
6.49656 0 -5.12896
-22.3982 0 -73.5436
13.3347 0 15.6243
-7.52996 0 -9.68207
-25.5128 0 -23.0642
-6.80442 0 -18.5272
44.6449 0 2.92345
5.17647 0 2.18761
-7.07237 0 10.2952
15.7601 0 11.9634
20.0946 0 -0.172789
-5.92543 0 -51.548
-6.88467 0 36.4343
7.70435 0 -11.6033
-3.47548 0 22.6044
-8.34085 0 10.7737
-6.84144 0 -6.35404
5.99789 0 -8.88172
0 0 0
1.75042 0 8.77603
-10.6088 0 -92.3115
-11.4305 0 -62.838
-35.3457 0 19.4653
65.0706 0 -60.7989
-4.68043 0 11.452
3.54753 0 7.24877
-6.58085 0 3.9423
-9.9871 0 -36.9005
-9.00029 0 36.5879
-78.786 0 -87.1577
-23.7822 0 -24.5757
-12.2551 0 25.0757
-19.3558 0 6.32484
62.5154 0 62.7554
15.808 0 24.1704
-16.9512 0 11.5548
-11.2531 0 16.7924
-29.9699 0 -54.8296
-0.299164 0 10.1709
-56.316 0 14.5912
-32.9084 0 -32.6433
55.2301 0 -52.1221
3.89857 0 22.3564
15.6812 0 24.3495
-41.127 0 12.7562
-14.3286 0 -19.6872
-25.2771 0 -1.34378
5.42949 0 -19.2498
18.1354 0 1.75824
-7.54996 0 23.7228
23.2557 0 20.6094
-11.2802 0 0.89524
19.9146 0 15.1094
-3.25324 0 27.1821
-27.5627 0 9.33194
85.6292 0 15.9131
-8.22853 0 -69.9418
-77.3682 0 -100.05
-71.538 0 -81.645
6.31783 0 3.08421
19.438 0 -53.0973
-15.1859 0 6.35501
-18.3456 0 -11.2941
-19.6475 0 22.2719
-3.2028 0 4.00877
-32.756 0 27.8975
1.48565 0 -11.2326
34.8182 0 -28.334
-55.1524 0 -62.2222
13.3517 0 9.85292
-17.3114 0 -31.5157
22.844 0 8.52143
19.5213 0 20.1348
-124.763 0 -129.395
103.455 0 18.2725
-2.30513 0 67.93
-14.4436 0 4.89549
5.55744 0 -10.6543
16.5182 0 14.9964
-0.621848 0 9.66736
2.39914 0 -3.89442
19.4094 0 84.0619
6.06548 0 11.2569
-69.3347 0 104.323
-9.38396 0 -23.956
-16.2233 0 0.896553
2.33785 0 14.5011
-14.7548 0 -49.754
21.248 0 -31.2537
111.796 0 -3.71698
5.79694 0 -9.10565
-6.69496 0 13.8778
-33.4927 0 -80.3555
5.09485 0 -0.127385
9.15531 0 -28.938
56.1174 0 -13.316
6.76342 0 10.2782
-19.1073 0 -34.0745
64.8858 0 19.1052
-3.763 0 -10.4648
-63.7786 0 38.4088
21.4316 0 -66.7364
33.9593 0 -28.1031
-20.773 0 70.7384
-0.583342 0 -1.16243
-17.4663 0 5.40262
3.97312 0 5.61753
11.2828 0 17.9872
23.5131 0 -9.25869
-59.5236 0 17.6706
64.3903 0 -21.3349
-12.8118 0 21.5609
0.944814 0 -15.4824
9.1315 0 -21.0703
-32.9458 0 3.61514
-8.73084 0 31.4809
-62.7505 0 -33.7262
48.7948 0 104.377
12.0083 0 3.22333
-3.43826 0 30.109
11.9372 0 -16.516
21.5816 0 49.7787
3.2407 0 0.845606
-23.1583 0 -14.8514
-16.4273 0 -1.1987
31.4872 0 -19.3351
-2.83616 0 7.96939
0.0173474 0 -1.97454
22.0031 0 -32.4478
7.41648 0 1.39443
20.4608 0 5.64983
5.77282 0 11.4925
39.8151 0 -48.7461
-0.51003 0 0.0337074
-5.87722 0 83.3767
23.853 0 13.9179
-16.8402 0 -12.4924
-0.00707334 0 4.8004
3.75035 0 -13.0095
13.5577 0 -49.6699
1.41744 0 39.3029
9.51419 0 18.1889
-4.60101 0 18.3289
-11.8979 0 3.38587
-2.15547 0 14.7201
-12.5905 0 -21.4732
-9.37497 0 5.50156
4.86076 0 41.2134
-64.161 0 29.3712
10.3989 0 66.8903
-14.9476 0 -16.6122
24.6063 0 -20.4564
10.0606 0 -10.1712
0 0 0
22.81 0 -25.5293
4.62578 0 -14.1131
6.50169 0 38.1323
-8.34441 0 -39.0305
80.9659 0 0.348291
4.94598 0 -4.62292
-7.52639 0 109.524
-20.7097 0 48.1824
55.5419 0 -17.503
12.8033 0 -8.15504
11.5738 0 -4.18725
2.78974 0 -2.25684
-30.5475 0 -10.3345
21.3468 0 4.73051
-36.7548 0 11.9025
-60.0781 0 -12.0213
14.5111 0 -8.96322
-5.70395 0 -18.9673
-5.45065 0 9.281
5.76195 0 2.27499
18.7632 0 10.2997
-0.632582 0 -24.3396
-21.1614 0 -62.9524
42.2176 0 4.06048
4.49845 0 -18.3399
7.0145 0 -6.67164
-48.5945 0 -26.0023
-16.2083 0 22.484
15.3394 0 21.7627
5.68815 0 -16.1097
7.02278 0 -95.4402
-12.9479 0 3.24279
-34.8335 0 28.7465
-43.2737 0 43.1542
-14.5602 0 6.6699
-1.93996 0 7.99128
-90.6989 0 -31.3256
35.0404 0 -45.7846
39.1921 0 6.67376
19.3156 0 45.0793
-7.64274 0 9.11011
-13.5648 0 -21.0335
-20.8171 0 8.59853
-26.143 0 -15.9551
-15.8449 0 -6.29947
-8.12148 0 9.96121
11.4634 0 -1.85951
-5.53725 0 0.510372
13.4202 0 -13.3727
0.192596 0 -4.21065
-0.666278 0 16.004
-16.8125 0 -12.3615
13.7463 0 -7.21631
-27.3804 0 -35.2229
30.065 0 16.3674
-31.5182 0 -70.7784
3.27592 0 -28.2025
-15.5742 0 -7.3009
35.7949 0 34.9451
-14.8761 0 1.85701
-14.9399 0 -3.05294
-1.16829 0 -12.8084
-6.01956 0 -33.1168
-74.4237 0 66.6376
-2.94414 0 0.0403689
4.42919 0 -0.780556
1.52367 0 12.0139
-29.082 0 -21.7513
-60.3559 0 20.3011
66.4397 0 -32.0941
54.7415 0 -36.8887
48.2068 0 -58.504
12.6958 0 24.9428
-38.2085 0 -29.744
28.5432 0 33.2296
-14.6593 0 -34.4425
49.8952 0 14.7021
52.7092 0 24.7481
15.0983 0 6.70643
-20.4198 0 18.8365
8.61519 0 -2.26535
-14.547 0 -37.5117
15.0059 0 -71.0909
14.402 0 64.3547
-1.28714 0 4.83818
-10.4755 0 -10.0455
38.938 0 72.2862
-7.92056 0 -0.0517638
88.9155 0 84.2168
12.3386 0 8.13136
29.4809 0 21.1777
-13.2191 0 -50.2209
-34.527 0 49.552
5.54094 0 -5.81983
49.8799 0 -30.3963
6.86415 0 -103.787
-8.22789 0 32.4928
-6.24263 0 43.5491
-50.7567 0 24.922
-4.19076 0 -18.4774
110.098 0 96.7237
-15.2597 0 11.8039
4.5912 0 3.07076
18.2354 0 14.3749
39.1427 0 25.6691
-5.13801 0 0.201903
-18.003 0 34.1624
-6.45212 0 2.04632
-24.286 0 -36.0402
-2.33421 0 6.13035
3.46804 0 -12.2108
-11.2427 0 14.1063
-6.93999 0 60.8734
9.85234 0 -16.9514
-10.7014 0 20.2889
55.7392 0 5.403
-23.5077 0 -15.9025
-15.395 0 -4.58941
16.7452 0 -5.962
7.51759 0 -8.46192
16.0595 0 2.09654
0.870486 0 -0.415939
-43.908 0 -12.3957
6.03955 0 16.1256
-17.2531 0 -74.6599
57.9369 0 -20.1654
5.47783 0 -15.8723
44.8378 0 15.7759
-55.4796 0 20.6298
-6.88905 0 -17.5352
-75.8652 0 -1.24516
22.4197 0 52.9205
-23.3111 0 0.390768
14.5823 0 -13.0937
-6.15253 0 -34.1756
19.0789 0 -30.0638
-36.8462 0 -5.47008
-4.77668 0 -28.039
-10.7819 0 -75.0675
23.1091 0 8.73234
-24.5911 0 -13.3633
21.623 0 13.5067
11.8981 0 -64.7483
0.730048 0 56.0457
0.0408635 0 4.11463
-18.3385 0 7.11109
30.472 0 52.153
-2.65907 0 14.1918
-49.6513 0 -5.82614
33.7341 0 -62.8644
-66.0223 0 41.4335
-9.96366 0 -3.19914
63.017 0 -45.3193
-5.82544 0 -19.8147
-30.6419 0 38.5355
-12.6094 0 -36.3506
-16.1224 0 7.79211
-9.88242 0 4.7159
28.1023 0 13.132
14.9124 0 -0.271934
-2.51505 0 10.3086
-7.68814 0 -14.4676
28.9103 0 -33.295
-16.3627 0 -21.9107
3.07526 0 -5.97227
-20.7193 0 34.5949
100.642 0 23.4795
53.194 0 -17.6638
3.06456 0 18.3218
1.35653 0 -6.12775
36.3591 0 -2.83077
-0.120176 0 21.0791
-17.538 0 -4.11113
-4.36128 0 64.1876
3.16653 0 6.78659
-13.7105 0 29.8964
24.7504 0 12.5462
14.4366 0 -38.1875
6.23408 0 18.0103
9.88084 0 -34.271
-20.6893 0 -79.9481
-4.55709 0 -0.538644
-9.98506 0 -17.9336
-14.3187 0 -12.2517
-28.2177 0 84.6852
-30.4926 0 13.9953
31.6956 0 44.3104
-33.5291 0 -5.1207
9.8977 0 -23.0371
9.68628 0 -6.97726
-6.14341 0 0.301008
13.8989 0 3.32326
-15.7284 0 -6.28869
10.5403 0 35.6924
-31.4448 0 -14.2762
17.826 0 25.8254
12.2115 0 18.5727
27.1637 0 -96.3721
-15.0765 0 6.9785
23.2213 0 86.0756
-34.3768 0 52.4691
34.3214 0 -0.725658
-25.4596 0 39.9035
16.6925 0 1.00412
15.6186 0 -17.0759
3.89886 0 1.25799
-1.62737 0 2.69609
0.402508 0 15.269
-52.606 0 -20.5448
1.67084 0 1.54959
150.879 0 -7.66452
-22.4038 0 0.419803
1.2243 0 -0.43247
60.0655 0 50.6264
-0.52855 0 60.6415
-7.17241 0 16.8488
-10.7371 0 -16.215
4.65257 0 -18.2003
16.7782 0 15.2225
-5.15628 0 -66.7277
-8.27299 0 51.4898
25.6989 0 12.0558
2.6415 0 -2.55196
22.3504 0 -7.13653
3.38998 0 -52.0241
-100.415 0 -47.915
7.01003 0 8.87862
4.40459 0 -14.7691
147.369 0 -36.9771
-9.40896 0 -121.093
24.3711 0 3.82799
4.55781 0 38.2015
-4.01897 0 16.5441
2.04101 0 -14.0665
-14.776 0 -3.25993
22.9371 0 0.222912
4.46581 0 6.19105
-10.2957 0 5.55508
-26.4703 0 -4.56402
-20.0868 0 84.4958
-46.697 0 29.5554
-17.8197 0 -2.58598
38.7926 0 40.9002
-12.0682 0 -35.7923
-29.5198 0 19.2647
66.7919 0 -33.5265
49.1278 0 -0.24348
-66.555 0 -14.2516
-4.15515 0 -6.77954
5.4082 0 17.8341
21.7162 0 7.68687
-16.6324 0 -1.83575
-1.76115 0 -8.65633
35.6602 0 -46.5459
7.2838 0 15.578
-7.77511 0 -2.48683
-9.6679 0 -12.8064
-0.905411 0 25.8434
-79.6411 0 -11.1909
-3.37133 0 -5.65388
-29.5983 0 -36.4663
38.457 0 36.7253
-3.69129 0 20.0238
-12.994 0 37.7672
-4.3558 0 -5.60381
0.41031 0 13.5594
-17.4623 0 -9.48037
10.3041 0 -23.552
-3.14432 0 0.362557
1.55425 0 11.4885
-57.3165 0 -31.1214
14.9695 0 -24.0565
-15.1891 0 68.0687
-33.8637 0 -47.4029
1.5698 0 -20.5312
-9.66757 0 -5.11775
15.9485 0 1.33907
-7.24776 0 7.23482
0.406275 0 -63.109
8.90584 0 -0.471661
10.7149 0 10.7346
35.7702 0 5.36043
-7.72231 0 22.5325
-1.79454 0 4.60196
16.2074 0 11.8532
15.554 0 7.52245
-13.8757 0 3.5289
-2.09456 0 -6.68493
-138.108 0 15.3471
-2.67053 0 9.06364
-39.3162 0 -12.1855
8.02955 0 18.4227
2.35193 0 1.57436
-40.2078 0 -78.2126
-46.8025 0 76.9177
10.4223 0 1.82074
-39.0482 0 10.0119
-4.67471 0 -0.0649081
-13.4533 0 3.80164
38.3882 0 42.1729
-88.7521 0 -13.0736
57.0037 0 -6.84746
26.7677 0 -1.77811
17.0375 0 -51.0236
9.40591 0 -6.65067
-23.6028 0 11.9854
-43.0953 0 -13.2029
-20.7887 0 -12.8776
42.8063 0 -17.9449
-73.378 0 -2.27756
-10.4669 0 -1.55378
18.803 0 33.5006
24.4676 0 -64.9508
-28.2004 0 27.9707
15.1663 0 10.024
-1.46748 0 -19.0338
12.723 0 -6.03811
-5.9647 0 5.72088
16.5915 0 -6.73154
6.93474 0 -1.95033
87.052 0 42.6503
6.62349 0 -16.4713
17.8648 0 -11.9776
-5.39204 0 -2.12708
-6.96152 0 -0.107161
7.55006 0 -72.8469
-48.4627 0 -30.5048
14.9748 0 6.13194
5.7993 0 -1.01101
-1.10746 0 19.2936
12.4137 0 6.77854
14.7625 0 -8.61469
-5.70127 0 -15.4367
1.62009 0 3.49339
-8.08902 0 -10.8567
19.7834 0 37.4553
9.72265 0 14.9532
-17.6054 0 0.199483
-47.1291 0 44.2048
10.7515 0 7.50111
-8.57578 0 -0.727723
-53.1104 0 -18.4605
-12.375 0 -11.1069
-13.8152 0 11.8359
-35.8553 0 15.4026
2.32075 0 -9.27645
-42.3813 0 -81.3047
35.4653 0 -13.2437
2.84082 0 1.55873
-56.5672 0 -13.1026
57.4221 0 19.5465
-4.90335 0 -5.25132
8.98861 0 80.4332
-12.2046 0 -1.11237
-17.6678 0 -8.96795
-4.96625 0 0.792831
10.3723 0 -3.51364
-15.4883 0 24.6346
8.91176 0 -16.9072
-30.8605 0 -21.6557
8.72781 0 -6.30137
86.6327 0 -27.4454
80.4049 0 -50.3797
-20.9668 0 59.5635
36.4137 0 39.5001
-6.5046 0 -68.9472
2.91664 0 4.19368
-29.3333 0 1.17303
-13.9575 0 32.8837
30.5211 0 -34.6445
-7.68406 0 9.59436
73.0769 0 3.86854
28.214 0 -24.4481
-12.6499 0 -47.6384
-15.1764 0 9.23743
-19.309 0 -22.8218
-6.07898 0 51.616
39.2292 0 -120.447
-15.2071 0 12.5996
40.0208 0 5.57264
2.8787 0 -15.7308
-16.672 0 -12.4592
6.5003 0 2.02389
6.13786 0 4.86106
-3.4561 0 -16.5039
-8.83916 0 68.0524
-12.0092 0 -19.509
-0.890623 0 -8.98614
-8.89254 0 -22.0798
58.3031 0 -26.6121
-0.15077 0 6.74291
0.0280791 0 27.1731
12.7339 0 -27.1668
12.2378 0 -27.015
16.5799 0 21.5428
-0.697064 0 36.6598
9.95976 0 -36.9498
-2.39075 0 -10.0996
-62.0397 0 -41.3502
-14.6202 0 14.3821
2.46713 0 62.091
19.6081 0 -10.476
-9.82258 0 -16.9556
-11.8522 0 -1.9159
17.4586 0 36.486
-0.757674 0 -9.35824
-41.8391 0 -11.1849
21.4759 0 39.9544
-30.4047 0 3.73033
8.89218 0 4.67384
-21.6203 0 0.0260506
1.05747 0 -5.80771
-14.9897 0 9.37915
-53.8282 0 4.74123
-6.76099 0 68.1137
-12.2018 0 10.2863
6.80657 0 20.3871
5.72776 0 -10.0841
-5.06635 0 23.761
33.5567 0 28.8993
1.5342 0 4.76693
-75.1782 0 64.9626
6.12861 0 55.1186
-4.72761 0 2.42246
-41.6421 0 23.5943
-24.1359 0 31.5266
38.8919 0 -18.0604
-26.4536 0 1.82003
0.428166 0 18.7661
-35.0351 0 -22.6658
15.9888 0 30.7197
7.92041 0 6.09084
3.75801 0 -160.582
-40.9497 0 -36.6018
14.036 0 1.42988
4.85271 0 5.60422
37.9686 0 42.8283
-98.5366 0 132.623
-80.9362 0 -47.2188
-27.1187 0 35.1136
2.5528 0 -0.454997
20.1648 0 8.68719
43.8105 0 -21.1768
15.0331 0 9.65103
127.528 0 -151.466
1.00874 0 7.41222
7.13559 0 -4.65278
0.371817 0 31.3757
-53.8917 0 11.4783
-5.94619 0 29.1591
-6.97062 0 9.388
16.8585 0 -8.42652
30.8898 0 -8.50179
-2.8358 0 27.8737
16.4947 0 4.4524
13.4453 0 1.21538
-0.651056 0 -1.75571
12.034 0 5.5924
65.6284 0 -31.5161
-19.5381 0 -10.085
4.81955 0 -9.61961
-9.0995 0 4.83848
5.10828 0 3.73784
10.398 0 10.6938
-1.31325 0 16.3996
31.3464 0 -58.073
-8.07066 0 -76.6225
-6.34197 0 -3.24171
25.2864 0 -0.730613
25.242 0 94.3469
-1.19812 0 -4.79276
-1.90446 0 -56.8001
69.0115 0 -75.0919
61.5004 0 9.39943
-0.644044 0 4.78084
57.1729 0 -28.656
-5.20236 0 10.6175
-28.6265 0 -83.4751
-15.4675 0 -16.1511
6.26181 0 -7.99016
-5.42522 0 -15.3723
-70.364 0 -48.5559
62.0293 0 43.8447
-9.92704 0 -35.6237
-10.6087 0 9.76165
8.22797 0 -35.143
4.09728 0 2.85349
27.6647 0 -46.8323
12.7181 0 -6.08619
-12.8374 0 55.9899
-0.753857 0 -12.8764
-47.5184 0 90.3187
-6.19258 0 1.14568
2.39749 0 14.2328
12.9599 0 -3.38455
27.8888 0 -7.55073
-27.814 0 48.8321
59.1162 0 -37.3032
3.03905 0 -15.1293
34.0584 0 -42.6132
-73.0895 0 -35.3475
5.73575 0 -15.5042
-41.4503 0 -4.04674
7.51882 0 -4.61706
-7.01724 0 -7.687
-76.1581 0 -52.7407
37.4375 0 -13.8866
100.908 0 -15.6021
-128.682 0 145.931
35.7384 0 -4.51482
2.86968 0 4.67586
-8.68361 0 -15.3044
18.4365 0 -45.8684
-12.6493 0 32.0219
-17.1629 0 -7.9675
13.1171 0 -13.1601
-3.94953 0 -1.6368
-10.2158 0 33.5433
-24.9056 0 -10.0941
-6.17171 0 -3.61951
-1.12003 0 2.08968
-1.85238 0 -1.0404
8.23436 0 2.56372
4.896 0 -17.5313
-15.294 0 6.83745
75.8605 0 39.401
25.0868 0 88.8872
-3.18561 0 -40.1158
65.0891 0 72.0907
37.1063 0 4.13116
-1.81026 0 -10.8428
8.017 0 -8.55316
-60.4845 0 78.2536
-14.6447 0 -1.58786
-0.268655 0 -15.4705
-35.6065 0 97.1051
17.2813 0 -27.4863
3.3098 0 1.82963
-8.0574 0 -27.6843
4.90918 0 -5.04332
17.5787 0 -8.24272
5.88667 0 11.6216
-51.2853 0 -30.0326
-5.94258 0 -6.89504