# vtk DataFile Version 3.0
SiWiRVisFile
ASCII
DATASET UNSTRUCTURED_GRID
POINTS 1600 DOUBLE
76.925 100 72.4791
75.7616 100 72.8581
76.6461 100 73.4973
78.4465 100 73.4202
79.508 100 73.9199
80.5365 100 74.3158
82.6047 100 73.9541
83.5335 100 74.4207
84.7425 100 74.6529
83.8165 100 73.3441
92.336 100 69.068
91.1997 100 68.7189
91.4917 100 69.8878
90.1796 100 68.695
85.6667 100 68.1196
90.2078 100 59.7848
91.3482 100 59.6287
92.0901 100 57.7864
88.5404 100 52.6934
93.7515 100 57.2999
105.818 100 37.6602
106.689 100 36.6262
106.106 100 35.3985
107.278 100 35.6263
104.949 100 35.2695
111.829 100 36.621
111.163 100 29.518
111.735 100 28.2959
110.525 100 30.9944
111.655 100 30.4734
112.803 100 30.2385
113.917 100 30.7424
112.55 100 29.1586
113.772 100 29.5145
113.626 100 35.6726
119.291 100 35.4378
116.941 100 35.6465
118.193 100 35.3694
117.485 100 36.4966
118.342 100 37.502
129.85 100 56.8783
135.952 100 52.6934
131.883 100 58.1863
133.144 100 59.9972
134.547 100 59.5326
135.745 100 69.4623
134.664 100 68.0512
134.196 100 70.5347
133.837 100 68.7349
133.383 100 69.841
140.571 100 73.0931
139.974 100 74.6429
141.066 100 74.2188
142.197 100 73.7437
143.847 100 74.1868
145.134 100 73.6835
146.2 100 73.2658
147.822 100 73.5607
148.769 100 72.9435
147.772 100 72.4242
74.8955 100 73.5414
75.7975 100 74.168
77.6004 100 74.0679
78.6967 100 74.5385
79.6868 100 75.0127
81.5608 100 74.6998
82.6674 100 75.1732
83.7797 100 75.5329
85.1996 100 75.706
86.2513 100 75.4866
87.2723 100 75.9911
92.0602 100 68.0115
90.3541 100 69.9221
90.9876 100 65.9757
91.4652 100 61.215
90.6098 100 67.7643
92.3449 100 58.917
93.1792 100 58.2303
94.4517 100 58.2502
97.1783 100 56.5032
105.61 100 36.3582
96.9882 100 43.3698
106.324 100 45.8123
110.305 100 34.1697
108.065 100 34.8956
110.859 100 36.072
110.359 100 35.2145
109.316 100 34.8721
107.188 100 27.1845
111.974 100 31.5857
113.021 100 31.3954
117.553 100 27.2371
113.571 100 33.2711
115.746 100 34.7215
114.957 100 36.4148
115.895 100 35.8764
114.321 100 33.9661
118.269 100 45.8745
127.504 100 43.3698
118.653 100 36.4371
126.737 100 57.0062
129.087 100 58.2033
130.94 100 57.4247
133.529 100 58.8992
133.176 100 67.3175
132.614 100 61.0028
132.721 100 64.5917
134.584 100 69.5002
132.233 100 67.9601
137.745 100 76.1135
138.471 100 75.2865
139.627 100 75.7599
140.723 100 75.411
141.743 100 74.9964
142.791 100 74.68
144.911 100 74.8991
145.854 100 74.4022
146.872 100 74.0454
148.736 100 74.1086
149.783 100 73.4674
74.8307 100 74.8499
75.7852 100 75.3356
76.7656 100 74.687
77.7859 100 75.2084
78.8601 100 75.7667
80.7213 100 75.3793
81.8933 100 76.0163
82.9654 100 76.5258
84.1572 100 76.593
85.3659 100 76.777
86.5481 100 76.8187
87.0936 100 77.8224
89.2167 100 76.9318
91.5805 100 66.8723
91.2506 100 63.9422
93.769 100 62.4138
92.6794 100 60.2668
93.4362 100 59.3071
94.758 100 59.3851
95.9964 100 56.3668
98.1379 100 55.7579
104.742 100 47.5007
105.592 100 46.7659
106.562 100 47.3681
100.202 100 44.1345
107.591 100 46.4381
107.375 100 45.3832
105.128 100 45.4432
110.686 100 33.1829
111.746 100 33.4914
112.551 100 32.5773
113.918 100 32.2146
121.098 100 45.2048
117.695 100 44.856
117.423 100 46.7287
121.228 100 46.434
118.324 100 47.7524
118.989 100 46.84
120.59 100 47.9958
126.034 100 56.173
128.831 100 56.5976
130.226 100 58.1151
132.456 100 59.2369
131.893 100 60.1103
132.637 100 62.05
132.177 100 63.5318
132.771 100 66.1281
135.797 100 76.3935
137.244 100 77.1859
138.342 100 77.0276
139.402 100 76.9402
140.389 100 76.5974
141.531 100 76.2372
142.634 100 75.7314
143.752 100 75.3734
145.785 100 75.7237
146.763 100 75.249
147.764 100 74.7882
148.776 100 75.4285
149.703 100 74.7509
74.9243 100 76.0387
76.0039 100 76.5588
76.8042 100 75.8156
77.9023 100 76.3447
79.8807 100 76.1656
80.936 100 76.4408
82.0357 100 77.1649
83.1777 100 77.6549
84.6806 100 77.5743
85.8817 100 77.7249
86.2662 100 79.1021
88.3669 100 78.248
87.9872 100 76.8718
92.1179 100 65.8689
91.7142 100 64.8786
92.3696 100 64.0095
93.5771 100 61.4269
92.5036 100 61.7103
93.7459 100 60.3754
95.3701 100 60.3717
95.8486 100 58.321
98.4894 100 56.982
104.581 100 46.4291
105.56 100 51.7127
105.627 100 47.9545
105.875 100 49.3686
108.51 100 48.7085
110.611 100 48.9372
108.55 100 45.2152
111.73 100 34.5058
113.217 100 34.5571
116.348 100 45.5737
115.165 100 47.1191
116.034 100 48.2051
118.08 100 48.8918
119.494 100 47.9852
119.179 100 49.2004
120.225 100 45.7707
125.384 100 57.3422
128.209 100 58.9743
129.344 100 59.9256
130.742 100 60.4512
131.588 100 61.3325
131.346 100 62.6851
131.162 100 63.8431
131.789 100 65.5275
131.852 100 66.8929
136.808 100 75.6564
136.927 100 78.4137
137.931 100 78.1482
139.041 100 78.0437
140.158 100 77.7923
141.182 100 77.3211
142.442 100 76.8203
143.574 100 76.499
144.742 100 76.0869
146.598 100 76.5168
147.676 100 75.9553
148.621 100 76.574
149.654 100 76.2105
75.0888 100 77.2621
76.0964 100 77.778
77.0074 100 77.0036
78.8838 100 76.8661
80.0066 100 77.3517
81.0931 100 77.6982
82.1393 100 78.2677
83.1077 100 78.9645
84.0007 100 78.4057
85.1437 100 78.6047
86.0743 100 80.315
89.3107 100 78.7147
90.0502 100 76.242
94.8979 100 64.2982
92.8393 100 64.9618
94.7397 100 62.182
96.3332 100 62.2609
95.4838 100 61.4596
95.9852 100 59.4959
96.9297 100 58.5484
96.5043 100 57.3159
102.704 100 55.5173
104.754 100 50.3417
107.087 100 49.7139
106.743 100 48.4783
108.201 100 49.9747
109.249 100 49.7728
110.414 100 50.0224
107.643 100 47.6854
111.018 100 37.322
111.906 100 38.2809
116.264 100 47.0398
113.898 100 49.9557
114.834 100 49.2657
116.043 100 49.3188
117.129 100 48.1816
117.537 100 49.9068
117.663 100 51.1226
121.806 100 54.8832
127.78 100 57.3769
127.311 100 58.4283
128.211 100 59.9662
129.645 100 60.9671
130.426 100 61.7943
128.979 100 62.5262
130.405 100 65.7508
130.424 100 64.6386
136.188 100 77.4593
135.646 100 78.5042
138.289 100 80.1201
138.77 100 79.0919
139.977 100 78.8054
141.331 100 78.4872
142.178 100 77.9175
143.264 100 77.6222
144.506 100 77.2836
145.568 100 76.9454
147.491 100 77.1498
148.437 100 77.7693
149.482 100 77.2908
75.273 100 78.491
76.3336 100 78.7808
77.2046 100 78.1997
77.9855 100 77.5079
79.1307 100 78.0744
80.1047 100 78.6086
81.1953 100 78.8502
82.1553 100 79.3647
83.044 100 80.0119
84.0476 100 79.4711
85.1789 100 79.7189
87.4564 100 78.8982
90.2171 100 79.5637
88.5193 100 75.7531
91.1691 100 75.812
94.1115 100 63.4668
96.4071 100 63.3246
97.5559 100 62.3087
97.0338 100 61.1861
97.1351 100 59.6358
98.1276 100 58.1304
100.65 100 57.4104
104.256 100 54.1667
104.677 100 52.8556
105.778 100 50.5499
106.991 100 50.9992
108.716 100 52.4816
108.862 100 50.8688
112.169 100 49.1531
111.321 100 48.0356
114.626 100 48.0441
113.682 100 50.9909
115.215 100 50.3644
115.612 100 51.804
116.657 100 50.6843
118.674 100 50.3194
118.791 100 51.3727
121.207 100 53.8988
124.259 100 58.1236
126.283 100 58.0374
127.18 100 59.5626
128.548 100 61.0287
127.889 100 61.8784
128.29 100 63.2775
130.222 100 62.7947
134.462 100 75.6995
136.094 100 73.8202
134.939 100 79.7832
137.295 100 79.5466
139.532 100 79.859
140.569 100 79.8385
141.379 100 80.6894
141.883 100 79.4831
142.808 100 78.7902
144.291 100 78.5473
145.365 100 78.1887
146.394 100 77.6183
147.33 100 78.3427
148.21 100 79.0037
149.324 100 78.3872
74.1995 100 78.6843
74.9896 100 79.5741
77.2672 100 79.2971
78.2474 100 78.7136
79.1202 100 79.3872
79.124 100 81.8256
81.3422 100 80.0181
82.2218 100 80.7035
83.3506 100 81.1057
84.4874 100 80.5861
85.4415 100 81.3323
88.4109 100 79.6138
90.2708 100 80.616
89.3448 100 75.1442
95.4434 100 65.2279
95.3164 100 63.1447
96.4677 100 64.4887
98.4262 100 63.2088
97.8443 100 60.4476
98.2279 100 59.1971
99.5757 100 58.202
101.689 100 57.0078
103.909 100 55.1826
106.684 100 51.9826
109.154 100 53.4747
109.614 100 51.8143
107.683 100 54.8381
110.661 100 51.2281
106.936 100 55.5912
108.672 100 55.9117
116.969 100 56.6047
116.573 100 55.3785
114.527 100 51.7772
115.586 100 55.6936
114.98 100 52.7181
116.142 100 52.8193
116.803 100 51.9003
120.648 100 54.7586
122.053 100 56.3179
125.295 100 58.3367
126.072 100 59.2416
127.491 100 60.7514
126.699 100 61.5916
127.544 100 64.0294
129.491 100 64.0986
129.495 100 65.206
135.775 100 75.3236
130.483 100 81.2908
136.132 100 79.9781
139.017 100 80.8584
140.285 100 80.906
141.213 100 81.6869
142.412 100 80.5181
143.272 100 79.7899
145.145 100 80.5586
145.127 100 79.2265
146.283 100 78.6918
147.158 100 79.4307
149.262 100 79.4705
150.309 100 78.8315
73.8386 100 79.7947
75.0885 100 80.8206
76.0064 100 80.048
77.1524 100 80.4318
78.2062 100 79.9669
78.2213 100 81.1026
80.2953 100 80.2588
81.1674 100 80.9984
82.0812 100 81.7794
84.0147 100 82.0018
84.9949 100 82.3476
86.1235 100 82.4662
87.0838 100 79.8696
87.1744 100 81.7699
87.078 100 82.8916
91.2956 100 79.6679
96.5489 100 65.6602
97.3926 100 63.9118
99.8478 100 61.0624
98.374 100 61.6419
98.9481 100 60.2143
99.3018 100 59.2372
104.869 100 55.9708
105.847 100 52.7986
107.503 100 52.7121
108.903 100 54.7243
107.964 100 53.7218
105.62 100 56.8523
106.698 100 56.7923
109.509 100 58.4523
115.921 100 56.6567
119.464 100 56.7867
120.012 100 57.7888
116.749 100 54.0689
115.666 100 54.4567
117.204 100 52.9857
117.923 100 52.1896
121.151 100 55.8003
124.672 100 59.2702
126.297 100 60.4171
125.627 100 61.5781
125.741 100 62.705
126.905 100 62.7319
128.45 100 64.5602
131.455 100 80.3974
137.506 100 82.4088
138.115 100 81.3973
137.009 100 80.6471
138.625 100 82.4403
139.647 100 82.9671
139.653 100 81.8747
142.502 100 81.7436
143.687 100 81.7542
144.082 100 80.7899
145.92 100 81.3993
146.191 100 79.9667
147.073 100 80.6219
148.11 100 80.1238
149.137 100 80.5572
150.533 100 79.8735
74.0539 100 81.1627
75.1112 100 82.2405
76.1136 100 81.0918
77.1563 100 81.6655
77.9529 100 83.5797
76.0025 100 84.2212
78.0491 100 82.2428
80.3426 100 81.609
81.2521 100 82.4757
80.1341 100 82.7549
82.4415 100 82.8371
84.1213 100 83.5713
85.3642 100 83.4533
86.3637 100 83.684
88.3111 100 83.474
90.4916 100 78.5883
97.2893 100 66.3784
97.414 100 65.0335
99.7644 100 62.829
[...]
POINT_DATA 1600
SCALARS mass double
LOOKUP_TABLE default
1
1
1
1
1
1
1
1
1
1
1
1
1
1
1
1
1
1
1
1
1
1
1
1
1
1
1
1
1
1
1
1
1
1
1
1
1
1
1
1
1
1
1
1
1
1
1
1
1
1
1
1
1
1
1
1
1
1
1
1
1
1
1
1
1
1
1
1
1
1
1
1
1
1
1
1
1
1
1
1
1
1
1
1
1
1
1
1
1
1
1
1
1
1
1
1
1
1
1
1
1
1
1
1
1
1
1
1
1
1
1
1
1
1
1
1
1
1
1
1
1
1
1
1
1
1
1
1
1
1
1
1
1
1
1
1
1
1
1
1
1
1
1
1
1
1
1
1
1
1
1
1
1
1
1
1
1
1
1
1
1
1
1
1
1
1
1
1
1
1
1
1
1
1
1
1
1
1
1
1
1
1
1
1
1
1
1
1
1
1
1
1
1
1
1
1
1
1
1
1
1
1
1
1
1
1
1
1
1
1
1
1
1
1
1
1
1
1
1
1
1
1
1
1
1
1
1
1
1
1
1
1
1
1
1
1
1
1
1
1
1
1
1
1
1
1
1
1
1
1
1
1
1
1
1
1
1
1
1
1
1
1
1
1
1
1
1
1
1
1
1
1
1
1
1
1
1
1
1
1
1
1
1
1
1
1
1
1
1
1
1
1
1
1
1
1
1
1
1
1
1
1
1
1
1
1
1
1
1
1
1
1
1
1
1
1
1
1
1
1
1
1
1
1
1
1
1
1
1
1
1
1
1
1
1
1
1
1
1
1
1
1
1
1
1
1
1
1
1
1
1
1
1
1
1
1
1
1
1
1
1
1
1
1
1
1
1
1
1
1
1
1
1
1
1
1
1
1
1
1
1
1
1
1
1
1
1
1
1
1
1
1
1
1
1
1
1
1
1
1
1
1
1
1
1
1
1
1
1
1
1
1
1
1
1
1
1
1
1
1
1
1
1
1
1
1
1
1
1
1
1
1
1
1
1
1
1
1
1
1
1
1
1
1
1
1
1
1
1
1
1
1
1
1
1
1
1
1
1
1
1
1
1
1
1
1
1
1
1
1
1
1
1
1
1
1
1
1
1
1
1
1
1
1
1
1
1
1
1
1
1
1
1
1
1
1
1
1
1
1
1
1
1
1
1
1
1
1
1
1
1
1
1
1
1
1
1
1
1
1
1
1
1
1
1
1
1
1
1
1
1
1
1
1
1
1
1
1
1
1
1
1
1
1
1
1
1
1
1
1
1
1
1
1
1
1
1
1
1
1
1
1
1
1
1
1
1
1
1
1
1
1
1
1
1
1
1
1
1
1
1
1
1
1
1
1
1
1
1
1
1
1
1
1
1
1
1
1
1
1
1
1
1
1
1
1
1
1
1
1
1
1
1
1
1
1
1
1
1
1
1
1
1
1
1
1
1
1
1
1
1
1
1
1
1
1
1
1
1
1
1
1
1
1
1
1
1
1
1
1
1
1
1
1
1
1
1
1
1
1
1
1
1
1
1
1
1
1
1
1
1
1
1
1
1
1
1
1
1
1
1
1
1
1
1
1
1
1
1
1
1
1
1
1
1
1
1
1
1
1
1
1
1
1
1
1
1
1
1
1
1
1
1
1
1
1
1
1
1
1
1
1
1
1
1
1
1
1
1
1
1
1
1
1
1
1
1
1
1
1
1
1
1
1
1
1
1
1
1
1
1
1
1
1
1
1
1
1
1
1
1
1
1
1
1
1
1
1
1
1
1
1
1
1
1
1
1
1
1
1
1
1
1
1
1
1
1
1
1
1
1
1
1
1
1
1
1
1
1
1
1
1
1
1
1
1
1
1
1
1
1
1
1
1
1
1
1
1
1
1
1
1
1
1
1
1
1
1
1
1
1
1
1
1
1
1
1
1
1
1
1
1
1
1
1
1
1
1
1
1
1
1
1
1
1
1
1
1
1
1
1
1
1
1
1
1
1
1
1
1
1
1
1
1
1
1
1
1
1
1
1
1
1
1
1
1
1
1
1
1
1
1
1
1
1
1
1
1
1
1
1
1
1
1
1
1
1
1
1
1
1
1
1
1
1
1
1
1
1
1
1
1
1
1
1
1
1
1
1
1
1
1
1
1
1
1
1
1
1
1
1
1
1
1
1
1
1
1
1
1
1
1
1
1
1
1
1
1
1
1
1
1
1
1
1
1
1
1
1
1
1
1
1
1
1
1
1
1
1
1
1
1
1
1
1
1
1
1
1
1
1
1
1
1
1
1
1
1
1
1
1
1
1
1
1
1
1
1
1
1
1
1
1
1
1
1
1
1
1
1
1
1
1
1
1
1
1
1
1
1
1
1
1
1
1
1
1
1
1
1
1
1
1
1
1
1
1
1
1
1
1
1
1
1
1
1
1
1
1
1
1
1
1
1
1
1
1
1
1
1
1
1
1
1
1
1
1
1
1
1
1
1
1
1
1
1
1
1
1
1
1
1
1
1
1
1
1
1
1
1
1
1
1
1
1
1
1
1
1
1
1
1
1
1
1
1
1
1
1
1
1
1
1
1
1
1
1
1
1
1
1
1
1
1
1
1
1
1
1
1
1
1
1
1
1
1
1
1
1
1
1
1
1
1
1
1
1
1
1
1
1
1
1
1
1
1
1
1
1
1
1
1
1
1
1
1
1
1
1
1
1
1
1
1
1
1
1
1
1
1
1
1
1
1
1
1
1
1
1
1
1
1
1
1
1
1
1
1
1
1
1
1
1
1
1
1
1
1
1
1
1
1
1
1
1
1
1
1
1
1
1
1
1
1
1
1
1
1
1
1
1
1
1
1
1
1
1
1
1
1
1
1
1
1
1
1
1
1
1
1
1
1
1
1
1
1
1
1
1
1
1
1
1
1
1
1
1
1
1
1
1
1
1
1
1
1
1
1
1
1
1
1
1
1
1
1
1
1
1
1
1
1
1
1
1
1
1
1
1
1
1
1
1
1
1
1
1
1
1
1
1
1
1
1
1
1
1
1
1
1
1
1
1
1
1
1
1
1
1
1
1
1
1
1
1
1
1
1
1
1
1
1
1
1
1
1
1
1
1
1
1
1
1
1
1
1
1
1
1
1
1
1
1
1
1
1
1
1
1
1
1
1
1
1
1
1
1
1
1
1
1
1
1
1
1
1
1
1
1
1
1
1
1
1
1
1
1
1
1
1
1
1
1
1
1
1
1
1
1
1
1
1
1
1
1
1
1
1
1
1
1
1
1
1
1
1
1
1
1
1
1
1
1
1
1
1
1
1
1
1
1
1
1
1
1
1
1
1
1
1
1
1
1
1
1
1
1
1
1
1
1
1
1
1
1
1
1
1
1
1
1
1
1
1
1
1
1
1
1
1
1
1
1
1
1
1
1
1
1
1
1
1
1
1
1
1
1
1
1
1
1
1
1
1
1
1
1
1
1
1
1
1
1
1
1
1
1
1
1
1
1
1
1
1
1
1
1
1
1
1
1
1
1
1
1
1
1
1
1
1
1
1
1
1
1
1
1
1
1
1
1
1
1
1
1
1
1
1
1
1
1
1
1
1
1
1
1
1
1
1
1
1
1
1
1
1
1
1
1
1
1
1
1
1
1
1
1
1
1
1
VECTORS force double
0.206958 0 -27.0474
7.54874 0 -2.33527
11.4761 0 42.7117
28.3514 0 -6.26613
47.8281 0 -57.3363
-1.26781 0 -22.5918
-48.0988 0 -8.21014
54.7305 0 38.4109
-18.7399 0 9.79398
-5.91811 0 5.64968
-15.3267 0 14.3253
87.6677 0 21.5882
-1.14127 0 -20.1086
-106.189 0 76.8313
0 0 0
7.36239 0 -0.0276989
10.8073 0 -0.160985
13.0835 0 11.7067
0 0 0
9.67434 0 0.373799
4.65017 0 -18.4392
-3.4089 0 -7.62565
15.5116 0 -5.99389
-32.1387 0 20.194
14.8921 0 11.2638
19.9025 0 -12.7921
1.80144 0 -25.5189
3.33083 0 17.4516
16.8539 0 -6.41461
15.7749 0 27.7479
9.54149 0 16.5277
-10.1316 0 -12.9281
-5.8216 0 -2.11701
-19.8913 0 16.2094
1.197 0 -8.83846
1.28555 0 9.79635
-22.3743 0 -94.6147
-21.7417 0 18.7454
73.2298 0 81.983
-8.18078 0 -5.2022
44.8409 0 30.2545
0 0 0
-5.09176 0 4.36259
42.8379 0 49.4884
-16.1426 0 -3.79209
-11.1704 0 -0.798259
14.8941 0 -6.83959
18.3814 0 19.9724
-41.6245 0 3.36237
-3.74476 0 -30.8858
5.96247 0 15.3046
-9.66689 0 -10.8595
-45.6142 0 -46.7638
-16.4743 0 11.9104
7.29206 0 18.6284
-63.8519 0 -45.262
-46.6765 0 -37.6558
-1.70655 0 -18.3792
1.17333 0 13.0177
-0.995175 0 7.64891
-9.55045 0 11.1047
-19.5607 0 16.2753
32.6172 0 -2.27172
-83.0452 0 50.8265
-4.27664 0 20.484
45.1097 0 1.30924
-0.60711 0 -3.92298
-1.76021 0 -3.15359
-39.1449 0 -8.66724
22.6011 0 10.0509
14.2784 0 -5.52292
-13.2124 0 -24.62
6.46739 0 -17.99
-2.00888 0 -26.5618
9.25461 0 -5.63404
45.7274 0 -72.9098
-14.765 0 22.2732
10.1923 0 -8.03021
-10.5046 0 7.24872
30.3366 0 -31.2209
-14.2531 0 15.0261
0 0 0
-8.70422 0 13.3008
-14.1384 0 -6.08225
27.7995 0 -14.8731
69.1555 0 127.188
-53.4265 0 -73.1316
-10.3251 0 -8.91807
0 0 0
-29.2992 0 -0.690816
25.5751 0 5.00452
0 0 0
-72.3514 0 -46.3853
1.35551 0 11.3414
-18.3825 0 4.47836
-7.5154 0 -10.8102
47.8289 0 59.061
-5.55098 0 10.8929
0 0 0
-6.40056 0 -20.108
-3.98751 0 16.7355
-5.23246 0 -2.00575
95.3324 0 -92.1542
3.64654 0 13.6506
-11.3387 0 -6.18481
14.2843 0 -60.296
-14.9616 0 2.10651
16.28 0 8.43072
5.40439 0 -5.29293
29.0714 0 28.8802
17.7831 0 1.74623
-3.13707 0 0.436008
9.23992 0 27.3734
44.6341 0 56.172
30.872 0 -24.6745
-35.3102 0 18.8884
78.1669 0 63.81
43.2243 0 73.1482
30.5382 0 21.0805
-16.5683 0 16.0732
-9.49475 0 -16.7566
36.8759 0 6.8949
-39.7213 0 35.2943
1.29352 0 3.01538
-20.1115 0 -28.5213
-2.69506 0 26.0313
43.2536 0 -23.5163
6.42666 0 -13.0242
1.37256 0 -2.46943
20.5137 0 -35.2444
-10.5165 0 1.38186
0.777092 0 -3.36454
-74.3399 0 -27.1378
10.3023 0 33.4647
-20.1645 0 -40.4498
-105.439 0 127.605
-23.9128 0 -8.24046
0.504245 0 3.98632
0.0959169 0 -0.371255
0.831607 0 -15.4104
-6.64074 0 19.0725
-112.062 0 -45
35.9842 0 5.51099
7.01237 0 -14.841
0 0 0
-7.25694 0 31.2394
2.25202 0 -18.9138
13.935 0 13.4469
9.29385 0 -32.0564
14.4145 0 -95.9744
10.7219 0 -1.44959
-15.8417 0 -13.8321
45.4588 0 -16.7694
-0.383058 0 11.574
3.26112 0 5.12933
-12.2582 0 -15.1668
-6.64398 0 7.03802
-4.13978 0 1.8925
8.56796 0 -2.54526
-12.4546 0 1.39854
-42.2147 0 1.92181
-103.888 0 84.9672
-24.6049 0 -106.745
-26.9635 0 62.8467
-17.6321 0 44.523
27.2802 0 -11.2053
-10.5733 0 11.1075
7.04611 0 25.841
11.2409 0 3.29249
-14.263 0 29.4916
-13.0626 0 12.5483
38.2393 0 -35.473
-18.4479 0 -22.7042
-1.944 0 29.066
3.46041 0 -5.8775
-13.0664 0 0.214802
1.90518 0 -7.15896
17.9694 0 -10.4461
-10.7417 0 -1.42695
-13.1493 0 -5.86187
10.5985 0 7.82923
-30.9492 0 3.45274
24.9996 0 1.72487
-11.8685 0 -4.90305
-8.05907 0 4.54376
-23.61 0 60.7877
15.6314 0 -20.9796
-14.5261 0 -0.0360957
-4.47893 0 20.0651
7.61194 0 27.0364
-11.881 0 -1.4345
-41.4708 0 -22.9716
2.98886 0 2.9994
8.83325 0 20.0627
-1.05609 0 39.8497
-3.59115 0 -38.3332
-16.4173 0 -79.9733
-0.84569 0 -5.9264
37.3113 0 -26.7142
-21.2225 0 3.8495
-9.44043 0 2.92652
-12.9631 0 0.351555
-25.1326 0 -24.8463
6.49085 0 -6.87533
124.027 0 63.9944
13.9414 0 1.59091
-5.89323 0 13.8007
5.05314 0 -8.1492
-13.406 0 5.24742
-8.08246 0 90.8375
9.11913 0 -7.74729
7.58316 0 8.23079
12.2297 0 -13.9712
-22.7812 0 -17.5532
-2.31419 0 -4.69542
-31.0003 0 -0.624059
-8.85843 0 -4.45162
-38.5547 0 37.825
20.03 0 -124.839
35.6436 0 -116.631
-13.1822 0 -11.3576
2.29435 0 17.3125
-27.7432 0 6.00245
3.38183 0 -3.9256
-24.2265 0 -13.3683
1.61018 0 2.33618
15.8893 0 -12.2025
-36.3068 0 -5.78386
-65.5326 0 6.32108
55.7711 0 -19.5572
16.0797 0 -26.9766
14.5737 0 -74.6286
31.4555 0 20.8736
17.1986 0 20.6545
0.447902 0 2.21942
-19.0594 0 6.9057
2.65657 0 -26.09
-4.79808 0 -0.0455426
-24.2911 0 11.4291
2.13146 0 -26.1132
8.82571 0 -0.619381
10.9608 0 -87.8373
-9.67966 0 9.67107
29.9926 0 15.3915
-1.39992 0 -8.14743
-16.7704 0 12.6271
13.9964 0 -10.4468
-5.57279 0 -74.789
26.8567 0 -27.4509
0.165816 0 -0.636156
4.6003 0 12.7775
50.1776 0 22.7654
13.3713 0 -14.3161
-3.81323 0 -32.8568
6.89507 0 32.6026
74.6245 0 11.6752
-0.248013 0 -35.6629
49.8002 0 -21.1372
16.0588 0 -36.6188
11.5244 0 -8.41689
-13.7044 0 67.0465
11.949 0 -2.0108
-39.3369 0 -9.96192
-12.0096 0 -1.03686
-6.21822 0 6.53782
-33.6037 0 -7.38283
30.7688 0 -5.38539
-10.9978 0 16.9092
-5.22196 0 3.06009
-11.795 0 11.0857
-7.73497 0 -11.3982
20.1932 0 7.20129
22.0686 0 -36.5943
8.49159 0 -1.31481
-9.38547 0 12.5458
24.1867 0 -5.16724
5.90338 0 13.2599
15.3934 0 -14.9477
-12.4296 0 2.17344
12.8265 0 7.91922
-31.4649 0 -19.5101
25.8038 0 118.601
22.8395 0 15.3735
31.8085 0 -84.264
59.1711 0 -68.453
36.7022 0 17.427
21.0132 0 10.2151
-15.8044 0 17.4628
43.7269 0 55.0315
-40.6225 0 -34.6537
-17.7989 0 -2.95117
-20.053 0 72.3834
-78.7039 0 40.3907
48.0511 0 -65.6352
9.82575 0 1.48947
-12.6903 0 4.31607
-27.8616 0 -24.4322
10.8374 0 6.40197
-22.7416 0 -7.87777
-7.04265 0 10.4973
-4.99426 0 -6.23083
-43.2264 0 89.7987
-3.526 0 -12.6935
49.9544 0 -16.8417
-4.05465 0 -17.9278
-0.831644 0 -6.64172
-13.5382 0 0.0911718
-12.3646 0 13.1554
26.7571 0 35.082
36.7652 0 49.1794
-12.0177 0 -19.1526
13.6466 0 -44.1551
-53.3382 0 39.1668
-66.7664 0 65.3899
-11.8324 0 4.86433
18.0648 0 -0.761647
15.1806 0 37.5665
-41.0105 0 26.9717
-5.94867 0 24.1132
-10.4863 0 -10.9789
-3.7911 0 -27.6694
-11.7344 0 19.4127
-40.2694 0 -78.3463
17.7355 0 13.2408
62.0168 0 12.8942
10.5292 0 -77.6918
-22.8495 0 -8.59893
12.3475 0 6.69723
-8.9481 0 -5.98118
1.26857 0 11.5193
-0.795988 0 35.1468
1.885 0 37.5134
-1.26226 0 -6.06522
32.9769 0 -6.20076
-10.7885 0 0.0800839
-21.3342 0 -43.4366
-18.2148 0 24.9626
42.234 0 -52.9765
-20.4476 0 -0.608933
52.0934 0 -12.7652
-7.84862 0 5.7186
22.3729 0 -14.7407
-24.644 0 22.1345
-32.4894 0 43.6423
-23.0412 0 86.0565
14.837 0 0.770563
-0.810121 0 6.00676
21.5095 0 6.87756
-3.63395 0 -5.74106
-47.0707 0 20.4234
69.2281 0 -14.7916
-26.3687 0 -101.163
0.593344 0 9.69771
7.29315 0 2.04707
-24.5106 0 -27.3487
-32.3922 0 -73.9393
32.7217 0 6.403
4.83034 0 -36.2677
20.8084 0 -7.34462
-13.0988 0 -1.5722
-4.57971 0 16.1557
-10.3085 0 5.83305
28.0986 0 29.5499
-29.5271 0 0.86021
32.5031 0 -18.846
5.28921 0 12.7025
5.21428 0 -112.836
6.16048 0 -9.28726
-7.57453 0 -12.1417
-10.8821 0 8.49342
1.21419 0 -12.3651
-8.53977 0 -22.3257
7.4435 0 30.9741
64.0533 0 -30.542
30.6898 0 12.0791
-13.9059 0 5.17549
-33.884 0 6.64093
-7.95453 0 6.80358
29.2144 0 7.26778
-28.0622 0 42.3489
3.60175 0 -28.2606
2.55279 0 -1.43096
-21.2158 0 34.9048
-40.5356 0 62.7447
-9.50352 0 25.3427
2.43753 0 -14.2943
37.5659 0 -29.022
-14.4857 0 -7.35878
-21.4751 0 38.4283
-12.6125 0 1.46037
22.7452 0 -29.9372
48.985 0 -18.2221
-37.6875 0 -53.0008
-77.2381 0 -70.4862
29.2234 0 47.6349
-26.1779 0 -2.14868
1.86391 0 -6.73396
-17.7289 0 52.7044
35.0505 0 23.6518
-29.1327 0 156.859
-4.60033 0 -3.83125
-45.3576 0 17.388
33.2939 0 -2.54365
-3.79565 0 -60.1155
-22.0768 0 -24.56
-51.7606 0 -11.0791
-22.2959 0 -30.7005
-2.35715 0 -2.38188
-5.64989 0 -16.6377
92.2643 0 29.4067
-17.0494 0 12.0405
-11.4049 0 43.2265
43.8598 0 -1.25944
5.01142 0 12.3279
25.5291 0 -13.0664
28.6917 0 52.8777
25.088 0 60.9304
10.0247 0 15.5505
4.07302 0 4.29225
-2.37344 0 -15.0361
17.0314 0 0.521193
-11.8648 0 -24.8648
5.76508 0 -47.1597
-5.17645 0 13.3619
-25.5923 0 -0.741996
-15.822 0 5.89526
-21.132 0 9.38395
30.8277 0 97.7997
6.19048 0 -9.04261
-45.5496 0 -17.8744
52.212 0 33.5919
-47.002 0 -13.0308
-4.42781 0 44.5224
-13.1987 0 6.188
68.9125 0 8.94007
4.20793 0 -5.55014
-74.9104 0 -42.7059
25.286 0 -14.4526
-9.43015 0 -14.8398
22.9748 0 -36.3451
-13.3554 0 50.3432
39.4079 0 -29.2527
-7.96332 0 31.9107
4.60949 0 11.8934
10.3195 0 5.8105
-18.9319 0 -6.03445
10.164 0 7.43924
-15.1971 0 -32.0412
26.1091 0 -4.98704
-6.67999 0 5.57688
-12.0484 0 72.3753
1.37167 0 -5.70165
-11.6638 0 7.84968
-6.51468 0 -5.02803
13.6802 0 14.1337
3.53993 0 21.0492
17.2665 0 -42.8029
-33.5851 0 -20.7586
9.80901 0 -1.37234
23.1213 0 4.19021
-26.061 0 -17.6492
5.92606 0 8.58934
0.236568 0 1.02056
57.4496 0 1.09327
-18.2466 0 3.29713
21.4779 0 -44.7973
-39.8232 0 20.4952
24.0646 0 4.22026
5.5836 0 -5.22295
-1.29455 0 0.678368
0.392923 0 -16.9636
-3.80106 0 -15.6329
-30.6357 0 61.6133
-5.28881 0 -55.1406
7.53865 0 3.89492
-30.0937 0 -9.17323
-6.17041 0 -1.72254
-7.30301 0 -9.25778
-6.60815 0 -17.7533
-10.6692 0 34.3771
-7.45558 0 -2.06836
-30.955 0 -47.9039
50.8155 0 43.7384
-2.33659 0 -41.208
-20.4116 0 -31.0137
2.69583 0 2.44706
34.8488 0 27.4947
-59.6873 0 51.5917
-19.9832 0 10.0074
-15.9766 0 -7.96879
-8.96849 0 2.72149
6.40353 0 4.46831
-75.2915 0 -32.6287
10.1232 0 26.6126
-20.7719 0 -65.5538
-3.06769 0 -64.0361
64.9533 0 18.0015
50.1211 0 0.463541
-83.8414 0 -44.9832
104.804 0 7.89227
-9.14219 0 1.19812
-13.0768 0 -14.512
60.8152 0 27.2764
10.8107 0 -31.209
4.27637 0 -7.30728
2.90963 0 -10.3025
4.68347 0 17.1279
-7.46479 0 3.66102
16.9615 0 -13.3795
-83.3054 0 -42.7642
9.39048 0 13.258
24.3434 0 7.39475
-11.4318 0 -45.8103
-0.228353 0 -5.5143
4.69123 0 22.4438
-10.0991 0 10.2417
-9.89201 0 11.9099
-34.3551 0 29.6206
-7.04918 0 -14.582
-3.12111 0 11.096
8.82378 0 12.6026
4.8562 0 -3.052
-4.68315 0 -30.4895
-6.59353 0 25.2309
2.51502 0 -21.0129
39.507 0 -32.5038
-107.011 0 22.0045
93.5525 0 33.3432
-17.4522 0 26.6701
19.498 0 37.4195
-5.88373 0 7.42403
0.557085 0 -4.09647
12.5616 0 12.4279
72.7726 0 -62.1507
38.7494 0 -30.5213
-73.3283 0 82.9431
-13.5091 0 -3.52594
27.9238 0 6.9518
-6.75935 0 53.3898
-1.76233 0 -16.213
17.9698 0 -9.78978
18.5251 0 52.7931
-23.2834 0 5.66505
-43.9041 0 -13.4007
9.48208 0 -1.15642
-19.3878 0 -24.9145
64.5015 0 -27.2182
2.44573 0 12.8472
-1.13097 0 1.28012
-1.08829 0 -14.7021
20.3605 0 -40.3342
48.5721 0 -30.8467
2.7657 0 -6.46722
0.696772 0 -8.09479
11.3679 0 4.98832
-20.0948 0 -15.0773
4.0816 0 8.32057
39.8968 0 31.5701
-16.3563 0 34.9306
-8.9669 0 -12.419
-37.8085 0 -29.8599
-0.702082 0 -15.8537
-12.1844 0 -2.17064
-9.37143 0 6.10406
-5.0182 0 -14.6834
20.7471 0 3.71113
11.6177 0 -3.48302
-52.085 0 7.00548
0.111854 0 -1.06129
9.04189 0 -6.35879
-21.3776 0 -19.0215
35.9092 0 10.1859
10.5799 0 48.5995
-1.00426 0 2.29669
-20.5504 0 2.74789
-6.2171 0 0.434234
-10.6787 0 10.9493
12.0136 0 -15.1689
6.16684 0 -16.7383
9.96949 0 -96.2864
0.999803 0 9.48876
-77.9706 0 65.9148
-29.6443 0 -51.1855
-40.5993 0 -28.5018
38.1038 0 21.2645
19.4435 0 -20.5782
-28.4773 0 38.5768
-9.22811 0 -87.2162
51.0574 0 -4.28894
8.62843 0 -16.5319
-0.561303 0 5.04425
27.2625 0 -22.9129
21.5865 0 14.9939
50.274 0 -8.73275
-8.26912 0 -45.0446
-28.5926 0 32.3546
-18.2886 0 5.91953
15.9019 0 -30.8015
-24.5857 0 4.4787
6.45796 0 -15.2938
10.4726 0 13.8739
-27.9619 0 -2.53208
-15.9955 0 35.0462
59.1886 0 -12.1505
-3.79213 0 -22.635
-18.9656 0 37.1082
-23.111 0 19.4962
-64.583 0 -59.143
32.3645 0 70.872
44.0252 0 60.3227
-34.3804 0 47.2783
-7.9733 0 -6.54416
45.4979 0 48.0545
16.3413 0 -1.07699
-10.9306 0 -11.2796
11.4356 0 33.8995
30.9914 0 14.1768
-40.9566 0 -44.7285
26.2346 0 -12.7508
9.56451 0 25.1785
-1.04325 0 26.1933
-4.59444 0 -12.9276
29.9163 0 33.5871
4.56501 0 17.9832
-12.4992 0 -6.44827
-1.49037 0 -6.33908
-16.6885 0 4.23867
46.295 0 33.7999
21.2965 0 10.0017
77.3206 0 37.4562
-24.4127 0 -25.3285
-23.48 0 49.7014
41.9434 0 -24.3628
-2.28085 0 2.43617
-0.786302 0 10.0575
19.2718 0 8.76527
12.7272 0 -0.025524
0.436003 0 4.65017
10.0566 0 94.7667
2.17139 0 -1.57696
-19.6755 0 -1.67368
-0.816441 0 -2.79322
2.22574 0 -20.4202
-12.2326 0 -0.678708
28.7879 0 43.0661
-2.98661 0 -4.25348
-0.905218 0 -5.68678
-17.2493 0 2.95119
-51.916 0 -10.3785
-7.49924 0 -2.21579
12.0663 0 24.0345
-46.9466 0 -13.5928
-98.0485 0 -123.47
2.4376 0 -7.19808
-7.781 0 -15.5432
6.47825 0 8.24136
-2.61877 0 4.24116
32.9513 0 -10.701
-6.37569 0 1.25347
-10.7016 0 47.1211
-10.8794 0 -12.3171
-1.49454 0 2.32007
26.3567 0 -44.6965
-27.9481 0 -24.3762
11.8388 0 9.90757
46.4543 0 22.1553
58.1259 0 72.9674
-18.9331 0 -82.4253
-6.3229 0 -11.2343
17.9053 0 30.6848
17.4486 0 -4.12874
-9.34691 0 -16.6506
-43.5534 0 -23.3033
-93.8407 0 -29.0165
-2.55109 0 -8.39359
46.6905 0 65.2783
-6.09424 0 17.2168
-2.43932 0 -12.6149
-19.5951 0 1.49875
-7.06682 0 39.2522
24.1824 0 -53.2073
25.3357 0 -24.7749
3.60084 0 14.2934
69.6712 0 9.81568
-32.6688 0 -15.546
-6.79282 0 -14.675
66.6362 0 -10.3394
25.6596 0 4.52103
-42.7438 0 -8.52616
-1.53573 0 -16.3172
12.1609 0 37.4867
-4.05175 0 -11.6965
17.1073 0 3.14914
37.6032 0 12.8425
-19.541 0 -12.0906
2.69347 0 -15.3827
9.4219 0 20.845
-9.49587 0 -32.3584
26.6063 0 32.6377
-23.2352 0 -12.2742
13.694 0 -4.16323
-5.07193 0 7.39336
4.69805 0 39.6967
-62.1544 0 28.4341
5.06626 0 17.5318
10.9055 0 -7.73423
0.750705 0 -14.3173
31.9078 0 46.4009
0.914829 0 -10.611
8.02311 0 5.25164
-28.9268 0 18.7357
34.1568 0 -17.2994
70.2712 0 139.316
8.22706 0 5.40032
-10.6384 0 -11.1847
0.384107 0 -3.50653
-39.314 0 9.91963
6.79323 0 11.0457
-6.90586 0 -11.8088
-10.174 0 1.31595
-27.4166 0 50.8155
-12.3672 0 -4.0317
9.79591 0 -6.54821
-39.3087 0 13.5456
13.5978 0 -78.7668
6.09592 0 -4.31532
33.6103 0 -20.1014
-112.58 0 41.8867
-69.8482 0 -49.3657
43.4254 0 -41.7896
-25.0839 0 -7.85323
21.9044 0 -16.2429
15.9189 0 -15.3688
2.52751 0 -17.6768
82.5048 0 15.145
3.18018 0 -74.3834
-20.0018 0 -18.3423
-1.37397 0 14.4076
9.93978 0 61.0909
18.1591 0 -16.0415
31.5622 0 -21.2881
28.1328 0 -49.1762
-0.303674 0 33.8415
-43.2065 0 12.5996
-23.5553 0 16.9751
-18.3918 0 8.05382
-8.24993 0 20.766
-17.5857 0 -23.7494
9.89974 0 18.7016
-5.87786 0 -4.16699
11.1764 0 1.23144
2.87453 0 -16.5637
-2.79062 0 -10.9607
-17.7201 0 -4.9133
-15.4828 0 -55.6386
8.6623 0 -19.4947
-26.2778 0 0.649295
-7.55942 0 4.85935
-8.00715 0 -13.354
-9.43135 0 9.9986
3.97246 0 -3.46324
12.3112 0 9.62281
-4.9152 0 17.7643
-99.2665 0 -150.949
-34.5623 0 5.41857
-11.5019 0 -14.6846
-31.7861 0 -8.36872
11.7276 0 -11.5711
26.0515 0 8.3205
12.4161 0 -8.88362
-27.2317 0 6.40711
-0.870292 0 0.0990311
-1.58732 0 50.0095
1.32012 0 13.4907
-6.71157 0 -4.17053
-11.1665 0 -47.8521
47.2228 0 -23.4312
27.9288 0 -52.0792
14.7657 0 -28.6976
-14.6482 0 7.72787
-11.1516 0 5.56815
13.0857 0 -1.41127
5.09066 0 6.47831
-3.88566 0 -28.8884
-25.9482 0 23.7735
10.8857 0 89.5673
0.911726 0 -4.94969
19.0505 0 75.5915
12.5279 0 -7.05344
-17.0847 0 30.272
97.542 0 -54.3639
1.84589 0 -2.34021
-4.3171 0 6.40472
-24.3176 0 -25.7613
-0.755212 0 61.5872
2.68396 0 -13.2574
-54.2835 0 2.9159
17.1327 0 7.18194
-16.2044 0 7.94033
-52.1661 0 -11.2514
9.47574 0 13.0401
-10.684 0 26.9644
-37.4602 0 20.7101
11.2025 0 16.7888
-71.9039 0 1.37004
60.394 0 -37.0351
2.40121 0 2.77971
15.731 0 23.7264
-12.2559 0 -1.3469
34.8687 0 -9.94958
8.19837 0 8.11032
-1.60219 0 11.0668
-12.028 0 24.7859
3.13472 0 27.0535
-1.4666 0 -10.3318
-14.988 0 -3.27164
-17.5398 0 5.17868
5.1736 0 -2.44045
79.0143 0 -33.2716
-20.7348 0 -12.2656
7.145 0 -7.23858
10.7428 0 32.9173
6.29839 0 -18.3556
9.37083 0 23.3381
-17.6212 0 -77.4187
-4.72852 0 12.0324
8.9715 0 -6.1609
-0.987554 0 -13.271
-8.40909 0 18.5642
-16.2473 0 -49.9956
29.8059 0 -69.2451
-2.84223 0 22.3289
-0.794731 0 3.98547
-36.8486 0 -74.8449
16.8429 0 -16.0886
-36.5596 0 74.3477
4.52397 0 -7.86388
-45.7371 0 62.5416
-19.3608 0 -7.03419
15.168 0 7.17695
-2.89268 0 4.24732
14.6259 0 -8.65731
27.115 0 20.9436
22.7262 0 40.2634
-19.7574 0 20.8449
32.188 0 -12.0495
23.9306 0 -12.5698
6.46304 0 5.53101
27.9629 0 0.952428
-6.23852 0 15.8463
7.17706 0 13.8088
6.9292 0 20.0647
5.12246 0 1.90581
6.28608 0 44.4461
50.2358 0 -59.5396
-22.3531 0 7.79407
-6.10985 0 -0.97188
-19.9146 0 36.6224
17.454 0 -41.1693
5.49243 0 -1.799
-9.74703 0 -14.9476
-14.0843 0 -3.96467
17.1472 0 -10.6346
-26.3111 0 -9.09169
-57.9379 0 30.4286
-31.8565 0 -1.1004
-19.6506 0 -2.12235
-1.50378 0 11.9094
8.65059 0 -11.9682
-7.70806 0 6.28958
11.5595 0 -0.932429
-19.7579 0 -7.17789
41.1989 0 -26.6954
-6.11517 0 -86.1579
3.59587 0 38.1927
9.07468 0 2.08594
2.83773 0 -6.22194
-8.10187 0 0.0110456
-6.79134 0 0.656271
-36.8806 0 61.9783
-9.26918 0 -20.1466
-15.9338 0 -2.25412
74.2354 0 -13.6647
29.05 0 -1.90175
-23.3013 0 74.0212
5.07608 0 -9.31203
4.08416 0 -39.1621
40.8799 0 4.93212
-16.0229 0 3.55473
-4.21965 0 64.4746