# vtk DataFile Version 3.0
SiWiRVisFile
ASCII
DATASET UNSTRUCTURED_GRID
POINTS 1600 DOUBLE
79.2545 100 76.1169
80.2938 100 76.493
81.3803 100 76.7222
82.7203 100 76.4842
83.7779 100 76.7287
84.851 100 76.7743
85.9289 100 76.8102
86.995 100 76.8133
88.1033 100 76.8342
89.2203 100 76.843
90.3793 100 76.8646
91.5406 100 76.8434
92.6507 100 76.7486
93.7089 100 76.6999
94.6942 100 76.7304
95.6953 100 76.756
96.8 100 76.7611
97.9773 100 76.7457
99.235 100 76.6868
100.337 100 76.0967
101.882 100 72.9579
102.842 100 74.2699
103.739 100 73.6269
104.915 100 73.5917
106.094 100 73.6055
107.254 100 73.688
108.43 100 73.6255
109.529 100 73.4642
110.616 100 73.4131
111.703 100 73.4189
112.789 100 73.4189
113.876 100 73.4131
114.963 100 73.4642
116.063 100 73.6255
117.238 100 73.688
118.399 100 73.6055
119.577 100 73.5917
120.753 100 73.6269
121.65 100 74.2699
122.61 100 72.9579
124.155 100 76.0967
125.257 100 76.6868
126.515 100 76.7457
127.692 100 76.7611
128.797 100 76.756
129.798 100 76.7304
130.784 100 76.6999
131.842 100 76.7486
132.952 100 76.8434
134.113 100 76.8646
135.272 100 76.843
136.389 100 76.8342
137.497 100 76.8133
138.563 100 76.8102
139.641 100 76.7743
140.715 100 76.7287
141.772 100 76.4842
143.112 100 76.7222
144.199 100 76.493
145.238 100 76.1169
79.3714 100 77.1958
80.4419 100 77.6393
82.1809 100 77.4433
83.2018 100 77.7243
84.2638 100 77.7452
85.3357 100 77.7781
86.4266 100 77.8064
87.5189 100 77.826
88.5958 100 77.8239
89.7734 100 77.8296
90.948 100 77.8431
92.06 100 77.8115
93.161 100 77.7332
94.2348 100 77.7607
95.3262 100 77.7888
96.4511 100 77.7826
97.5928 100 77.7527
98.6984 100 77.6425
99.8456 100 77.7125
100.86 100 77.1086
102.393 100 75.3268
102.275 100 76.7356
103.272 100 75.6721
104.604 100 75.7678
105.61 100 75.244
106.808 100 74.8318
107.992 100 74.6028
109.2 100 74.5842
110.444 100 74.5918
111.655 100 74.4875
112.838 100 74.4875
114.048 100 74.5918
115.292 100 74.5842
116.5 100 74.6028
117.685 100 74.8318
118.882 100 75.244
119.889 100 75.7678
121.22 100 75.6721
122.217 100 76.7356
122.1 100 75.3268
123.632 100 77.1086
124.647 100 77.7125
125.794 100 77.6425
126.9 100 77.7527
128.041 100 77.7826
129.166 100 77.7888
130.258 100 77.7607
131.331 100 77.7332
132.432 100 77.8115
133.544 100 77.8431
134.719 100 77.8296
135.897 100 77.8239
136.973 100 77.826
138.066 100 77.8064
139.157 100 77.7781
140.229 100 77.7452
141.291 100 77.7243
142.311 100 77.4433
144.05 100 77.6393
145.121 100 77.1958
79.4483 100 78.3219
80.4785 100 78.7137
81.409 100 78.1827
82.4868 100 78.5615
83.5753 100 78.7577
84.7234 100 78.738
85.7935 100 78.7746
86.8835 100 78.7823
87.9976 100 78.8026
89.1412 100 78.8635
90.2999 100 78.8319
91.4405 100 78.7915
92.6781 100 78.81
94.0321 100 78.8456
95.1237 100 78.823
96.2483 100 78.8482
97.339 100 78.864
98.4108 100 78.8509
99.4472 100 78.691
100.673 100 78.2416
101.693 100 78.113
103.184 100 77.4882
104.375 100 77.757
105.533 100 77.544
106.691 100 77.4236
107.834 100 77.3371
108.941 100 77.3897
109.767 100 76.6271
110.849 100 76.2988
111.669 100 75.5568
112.823 100 75.5568
113.644 100 76.2988
114.725 100 76.6271
115.552 100 77.3897
116.659 100 77.3371
117.801 100 77.4236
118.959 100 77.544
120.117 100 77.757
121.308 100 77.4882
122.8 100 78.113
123.82 100 78.2416
125.045 100 78.691
126.082 100 78.8509
127.153 100 78.864
128.244 100 78.8482
129.369 100 78.823
130.46 100 78.8456
131.814 100 78.81
133.052 100 78.7915
134.193 100 78.8319
135.351 100 78.8635
136.495 100 78.8026
137.609 100 78.7823
138.699 100 78.7746
139.769 100 78.738
140.917 100 78.7577
142.006 100 78.5615
143.083 100 78.1827
144.014 100 78.7137
145.044 100 78.3219
79.6188 100 79.4279
80.7207 100 79.8134
81.6087 100 79.2474
82.8995 100 79.6536
84.1725 100 79.6927
85.2696 100 79.7448
86.3392 100 79.7547
87.3834 100 79.793
88.4168 100 79.8452
89.4398 100 79.8957
90.455 100 79.9446
91.4507 100 79.9146
92.4977 100 79.8403
93.5515 100 79.8039
94.6232 100 79.7713
95.7122 100 79.8076
96.791 100 79.8265
97.8578 100 79.8384
98.9443 100 79.7784
100.015 100 79.5304
101.088 100 79.2261
102.448 100 78.9201
103.579 100 78.4723
104.687 100 78.791
106.024 100 78.7518
107.02 100 78.6329
108.001 100 78.7778
108.961 100 78.7216
109.924 100 78.3499
111.333 100 77.2231
113.16 100 77.2231
114.568 100 78.3499
115.532 100 78.7216
116.491 100 78.7778
117.472 100 78.6329
118.468 100 78.7518
119.805 100 78.791
120.913 100 78.4723
122.044 100 78.9201
123.404 100 79.2261
124.477 100 79.5304
125.548 100 79.7784
126.635 100 79.8384
127.701 100 79.8265
128.78 100 79.8076
129.869 100 79.7713
130.941 100 79.8039
131.995 100 79.8403
133.042 100 79.9146
134.037 100 79.9446
135.053 100 79.8957
136.076 100 79.8452
137.109 100 79.793
138.153 100 79.7547
139.223 100 79.7448
140.32 100 79.6927
141.593 100 79.6536
142.884 100 79.2474
143.772 100 79.8134
144.874 100 79.4279
79.8671 100 80.4986
80.8981 100 80.8785
81.9042 100 80.3149
82.8843 100 80.9405
84.0435 100 80.7545
85.113 100 80.861
86.3516 100 80.9129
87.4937 100 80.8897
88.7044 100 80.8821
89.8776 100 80.8915
91.0165 100 80.886
92.0968 100 80.8362
93.189 100 80.8502
94.2991 100 80.836
95.3636 100 80.8582
96.4093 100 80.8989
97.5027 100 80.8422
98.5704 100 80.8203
99.5972 100 80.6457
100.748 100 80.3234
101.679 100 80.1067
102.823 100 80.0092
104.095 100 79.7496
105.278 100 79.738
106.353 100 79.7935
107.361 100 79.7408
108.514 100 79.7039
109.732 100 79.4065
110.836 100 79.3901
111.639 100 78.4589
112.853 100 78.4589
113.656 100 79.3901
114.761 100 79.4065
115.978 100 79.7039
117.131 100 79.7408
118.139 100 79.7935
119.214 100 79.738
120.397 100 79.7496
121.669 100 80.0092
122.813 100 80.1067
123.744 100 80.3234
124.895 100 80.6457
125.922 100 80.8203
126.99 100 80.8422
128.083 100 80.8989
129.129 100 80.8582
130.193 100 80.836
131.303 100 80.8502
132.396 100 80.8362
133.476 100 80.886
134.615 100 80.8915
135.788 100 80.8821
136.999 100 80.8897
138.141 100 80.9129
139.379 100 80.861
140.449 100 80.7545
141.608 100 80.9405
142.588 100 80.3149
143.594 100 80.8785
144.625 100 80.4986
79.9212 100 81.5779
80.8971 100 81.9995
81.8615 100 81.4388
82.8007 100 82.054
83.8527 100 81.8232
84.8837 100 81.9265
85.9317 100 81.8905
87.0016 100 81.9071
88.0393 100 81.9252
89.1422 100 81.8569
90.3076 100 81.8325
91.4028 100 81.8109
92.5053 100 81.8018
93.6177 100 81.8215
94.7334 100 81.8183
95.8485 100 81.8235
96.9566 100 81.8062
98.0485 100 81.7917
99.1258 100 81.8921
100.286 100 81.4656
101.298 100 81.238
102.362 100 80.9076
103.494 100 80.8743
104.649 100 80.6308
105.899 100 80.8831
106.922 100 80.7226
108.132 100 80.7522
109.094 100 80.6557
110.408 100 80.5047
111.448 100 80.2887
113.044 100 80.2887
114.084 100 80.5047
115.398 100 80.6557
116.361 100 80.7522
117.571 100 80.7226
118.593 100 80.8831
119.843 100 80.6308
120.999 100 80.8743
122.13 100 80.9076
123.195 100 81.238
124.207 100 81.4656
125.367 100 81.8921
126.444 100 81.7917
127.536 100 81.8062
128.644 100 81.8235
129.759 100 81.8183
130.875 100 81.8215
131.987 100 81.8018
133.09 100 81.8109
134.185 100 81.8325
135.35 100 81.8569
136.453 100 81.9252
137.491 100 81.9071
138.561 100 81.8905
139.609 100 81.9265
140.64 100 81.8232
141.692 100 82.054
142.631 100 81.4388
143.595 100 81.9995
144.571 100 81.5779
79.9298 100 82.6503
80.9197 100 83.1123
81.8623 100 82.5599
82.8626 100 83.1488
83.9431 100 82.8938
85.0466 100 83.0098
86.145 100 83.0031
87.3097 100 83.0037
88.4567 100 82.9586
89.584 100 82.9053
90.7192 100 82.8965
91.852 100 82.9071
92.9756 100 82.8928
94.1 100 82.8814
95.236 100 82.8642
96.3509 100 82.861
97.4268 100 82.8664
98.5381 100 82.893
99.6294 100 82.749
100.566 100 82.3963
101.962 100 81.9881
103.04 100 81.8016
104.288 100 81.6619
105.278 100 81.7341
106.458 100 81.812
107.594 100 81.6527
108.746 100 81.6898
109.779 100 81.4993
110.806 100 81.6889
111.736 100 81.2148
112.756 100 81.2148
113.687 100 81.6889
114.713 100 81.4993
115.746 100 81.6898
116.899 100 81.6527
118.034 100 81.812
119.214 100 81.7341
120.204 100 81.6619
121.453 100 81.8016
122.531 100 81.9881
123.927 100 82.3963
124.863 100 82.749
125.954 100 82.893
127.066 100 82.8664
128.141 100 82.861
129.256 100 82.8642
130.392 100 82.8814
131.517 100 82.8928
132.64 100 82.9071
133.773 100 82.8965
134.908 100 82.9053
136.036 100 82.9586
137.183 100 83.0037
138.347 100 83.0031
139.446 100 83.0098
140.549 100 82.8938
141.63 100 83.1488
142.63 100 82.5599
143.573 100 83.1123
144.563 100 82.6503
79.9053 100 83.6885
80.8869 100 84.2179
81.8713 100 83.6697
82.818 100 84.2241
83.89 100 84.0204
84.9339 100 84.1412
86.0498 100 84.1272
87.1835 100 84.0908
88.3131 100 84.0405
89.4304 100 84.043
90.5358 100 84.0414
91.641 100 84.0476
92.7479 100 84.0332
93.8578 100 84.0233
94.9858 100 84.0096
96.106 100 84.0104
97.2072 100 84.0216
98.3219 100 84.0147
99.3796 100 83.8558
100.471 100 83.5311
101.4 100 82.9248
102.516 100 82.8421
103.534 100 82.7229
104.837 100 82.7796
105.93 100 82.7409
106.966 100 82.6245
108.101 100 82.5814
109.257 100 82.6483
110.497 100 82.7824
111.635 100 82.4035
112.858 100 82.4035
113.996 100 82.7824
115.236 100 82.6483
116.392 100 82.5814
117.527 100 82.6245
118.562 100 82.7409
119.656 100 82.7796
120.958 100 82.7229
121.977 100 82.8421
123.093 100 82.9248
124.021 100 83.5311
125.113 100 83.8558
126.17 100 84.0147
127.285 100 84.0216
128.386 100 84.0104
129.507 100 84.0096
130.635 100 84.0233
131.744 100 84.0332
132.851 100 84.0476
133.957 100 84.0414
135.062 100 84.043
136.179 100 84.0405
137.309 100 84.0908
138.443 100 84.1272
139.558 100 84.1412
140.602 100 84.0204
141.674 100 84.2241
142.621 100 83.6697
143.606 100 84.2179
144.587 100 83.6885
79.9621 100 84.9344
80.9218 100 85.2618
81.8716 100 84.752
82.7853 100 85.2609
83.8859 100 85.1481
85.0373 100 85.2242
86.1608 100 85.1903
87.2733 100 85.163
88.3841 100 85.1601
89.4929 100 85.1704
90.5974 100 85.1709
91.708 100 85.1746
92.8216 100 85.1659
93.9412 100 85.1604
95.0778 100 85.1524
96.1935 100 85.1594
97.2965 100 85.183
98.4534 100 84.9801
99.5369 100 84.8147
100.597 100 84.5104
101.733 100 83.9813
[...]
POINT_DATA 1600
SCALARS mass double
LOOKUP_TABLE default
1
1
1
1
1
1
1
1
1
1
1
1
1
1
1
1
1
1
1
1
1
1
1
1
1
1
1
1
1
1
1
1
1
1
1
1
1
1
1
1
1
1
1
1
1
1
1
1
1
1
1
1
1
1
1
1
1
1
1
1
1
1
1
1
1
1
1
1
1
1
1
1
1
1
1
1
1
1
1
1
1
1
1
1
1
1
1
1
1
1
1
1
1
1
1
1
1
1
1
1
1
1
1
1
1
1
1
1
1
1
1
1
1
1
1
1
1
1
1
1
1
1
1
1
1
1
1
1
1
1
1
1
1
1
1
1
1
1
1
1
1
1
1
1
1
1
1
1
1
1
1
1
1
1
1
1
1
1
1
1
1
1
1
1
1
1
1
1
1
1
1
1
1
1
1
1
1
1
1
1
1
1
1
1
1
1
1
1
1
1
1
1
1
1
1
1
1
1
1
1
1
1
1
1
1
1
1
1
1
1
1
1
1
1
1
1
1
1
1
1
1
1
1
1
1
1
1
1
1
1
1
1
1
1
1
1
1
1
1
1
1
1
1
1
1
1
1
1
1
1
1
1
1
1
1
1
1
1
1
1
1
1
1
1
1
1
1
1
1
1
1
1
1
1
1
1
1
1
1
1
1
1
1
1
1
1
1
1
1
1
1
1
1
1
1
1
1
1
1
1
1
1
1
1
1
1
1
1
1
1
1
1
1
1
1
1
1
1
1
1
1
1
1
1
1
1
1
1
1
1
1
1
1
1
1
1
1
1
1
1
1
1
1
1
1
1
1
1
1
1
1
1
1
1
1
1
1
1
1
1
1
1
1
1
1
1
1
1
1
1
1
1
1
1
1
1
1
1
1
1
1
1
1
1
1
1
1
1
1
1
1
1
1
1
1
1
1
1
1
1
1
1
1
1
1
1
1
1
1
1
1
1
1
1
1
1
1
1
1
1
1
1
1
1
1
1
1
1
1
1
1
1
1
1
1
1
1
1
1
1
1
1
1
1
1
1
1
1
1
1
1
1
1
1
1
1
1
1
1
1
1
1
1
1
1
1
1
1
1
1
1
1
1
1
1
1
1
1
1
1
1
1
1
1
1
1
1
1
1
1
1
1
1
1
1
1
1
1
1
1
1
1
1
1
1
1
1
1
1
1
1
1
1
1
1
1
1
1
1
1
1
1
1
1
1
1
1
1
1
1
1
1
1
1
1
1
1
1
1
1
1
1
1
1
1
1
1
1
1
1
1
1
1
1
1
1
1
1
1
1
1
1
1
1
1
1
1
1
1
1
1
1
1
1
1
1
1
1
1
1
1
1
1
1
1
1
1
1
1
1
1
1
1
1
1
1
1
1
1
1
1
1
1
1
1
1
1
1
1
1
1
1
1
1
1
1
1
1
1
1
1
1
1
1
1
1
1
1
1
1
1
1
1
1
1
1
1
1
1
1
1
1
1
1
1
1
1
1
1
1
1
1
1
1
1
1
1
1
1
1
1
1
1
1
1
1
1
1
1
1
1
1
1
1
1
1
1
1
1
1
1
1
1
1
1
1
1
1
1
1
1
1
1
1
1
1
1
1
1
1
1
1
1
1
1
1
1
1
1
1
1
1
1
1
1
1
1
1
1
1
1
1
1
1
1
1
1
1
1
1
1
1
1
1
1
1
1
1
1
1
1
1
1
1
1
1
1
1
1
1
1
1
1
1
1
1
1
1
1
1
1
1
1
1
1
1
1
1
1
1
1
1
1
1
1
1
1
1
1
1
1
1
1
1
1
1
1
1
1
1
1
1
1
1
1
1
1
1
1
1
1
1
1
1
1
1
1
1
1
1
1
1
1
1
1
1
1
1
1
1
1
1
1
1
1
1
1
1
1
1
1
1
1
1
1
1
1
1
1
1
1
1
1
1
1
1
1
1
1
1
1
1
1
1
1
1
1
1
1
1
1
1
1
1
1
1
1
1
1
1
1
1
1
1
1
1
1
1
1
1
1
1
1
1
1
1
1
1
1
1
1
1
1
1
1
1
1
1
1
1
1
1
1
1
1
1
1
1
1
1
1
1
1
1
1
1
1
1
1
1
1
1
1
1
1
1
1
1
1
1
1
1
1
1
1
1
1
1
1
1
1
1
1
1
1
1
1
1
1
1
1
1
1
1
1
1
1
1
1
1
1
1
1
1
1
1
1
1
1
1
1
1
1
1
1
1
1
1
1
1
1
1
1
1
1
1
1
1
1
1
1
1
1
1
1
1
1
1
1
1
1
1
1
1
1
1
1
1
1
1
1
1
1
1
1
1
1
1
1
1
1
1
1
1
1
1
1
1
1
1
1
1
1
1
1
1
1
1
1
1
1
1
1
1
1
1
1
1
1
1
1
1
1
1
1
1
1
1
1
1
1
1
1
1
1
1
1
1
1
1
1
1
1
1
1
1
1
1
1
1
1
1
1
1
1
1
1
1
1
1
1
1
1
1
1
1
1
1
1
1
1
1
1
1
1
1
1
1
1
1
1
1
1
1
1
1
1
1
1
1
1
1
1
1
1
1
1
1
1
1
1
1
1
1
1
1
1
1
1
1
1
1
1
1
1
1
1
1
1
1
1
1
1
1
1
1
1
1
1
1
1
1
1
1
1
1
1
1
1
1
1
1
1
1
1
1
1
1
1
1
1
1
1
1
1
1
1
1
1
1
1
1
1
1
1
1
1
1
1
1
1
1
1
1
1
1
1
1
1
1
1
1
1
1
1
1
1
1
1
1
1
1
1
1
1
1
1
1
1
1
1
1
1
1
1
1
1
1
1
1
1
1
1
1
1
1
1
1
1
1
1
1
1
1
1
1
1
1
1
1
1
1
1
1
1
1
1
1
1
1
1
1
1
1
1
1
1
1
1
1
1
1
1
1
1
1
1
1
1
1
1
1
1
1
1
1
1
1
1
1
1
1
1
1
1
1
1
1
1
1
1
1
1
1
1
1
1
1
1
1
1
1
1
1
1
1
1
1
1
1
1
1
1
1
1
1
1
1
1
1
1
1
1
1
1
1
1
1
1
1
1
1
1
1
1
1
1
1
1
1
1
1
1
1
1
1
1
1
1
1
1
1
1
1
1
1
1
1
1
1
1
1
1
1
1
1
1
1
1
1
1
1
1
1
1
1
1
1
1
1
1
1
1
1
1
1
1
1
1
1
1
1
1
1
1
1
1
1
1
1
1
1
1
1
1
1
1
1
1
1
1
1
1
1
1
1
1
1
1
1
1
1
1
1
1
1
1
1
1
1
1
1
1
1
1
1
1
1
1
1
1
1
1
1
1
1
1
1
1
1
1
1
1
1
1
1
1
1
1
1
1
1
1
1
1
1
1
1
1
1
1
1
1
1
1
1
1
1
1
1
1
1
1
1
1
1
1
1
1
1
1
1
1
1
1
1
1
1
1
1
1
1
1
1
1
1
1
1
1
1
1
1
1
1
1
1
1
1
1
1
1
1
1
1
1
1
1
1
1
1
1
1
1
1
1
1
1
1
1
1
1
1
1
1
1
1
1
1
1
1
1
1
1
1
1
1
1
1
1
1
1
1
1
1
1
1
1
1
1
1
1
1
1
1
1
1
1
1
1
1
VECTORS force double
-5.87654 0 -15.6012
-2.55844 0 14.8946
-9.38948 0 1.54409
-15.7326 0 3.17801
-10.6132 0 12.0314
0.182885 0 3.80612
-11.5423 0 3.94513
22.5337 0 11.2255
-3.07983 0 3.13336
5.7458 0 11.2922
-0.375501 0 7.94917
-17.6436 0 2.37928
-37.6959 0 9.78248
-122.257 0 12.3757
44.345 0 15.7941
119.05 0 6.01722
27.5349 0 -6.08813
12.4936 0 -11.5535
10.9695 0 -1.40128
-8.5906 0 13.0714
3.08856 0 3.44657
-7.06393 0 12.6855
13.9928 0 -2.94038
0.941064 0 2.99855
2.17051 0 9.97958
3.23893 0 17.7037
4.24167 0 -11.2474
-8.45748 0 14.5311
0.67214 0 15.4217
2.60852 0 -19.3174
-2.60852 0 -19.3174
-0.67214 0 15.4217
8.45748 0 14.5311
-4.24167 0 -11.2474
-3.23893 0 17.7037
-2.17051 0 9.97958
-0.941064 0 2.99855
-13.9928 0 -2.94038
7.06393 0 12.6855
-3.08856 0 3.44657
8.5906 0 13.0714
-10.9695 0 -1.40128
-12.4936 0 -11.5535
-27.5349 0 -6.08813
-119.05 0 6.01722
-44.345 0 15.7941
122.257 0 12.3757
37.6959 0 9.78248
17.6436 0 2.37928
0.375501 0 7.94917
-5.7458 0 11.2922
3.07983 0 3.13336
-22.5337 0 11.2255
11.5423 0 3.94513
-0.182885 0 3.80612
10.6132 0 12.0314
15.7326 0 3.17801
9.38948 0 1.54409
2.55844 0 14.8946
5.87654 0 -15.6012
16.553 0 16.6036
-11.6314 0 -33.2697
-1.07911 0 2.4746
3.58542 0 -18.1445
-1.67397 0 -1.94912
8.12851 0 -3.81479
-7.91498 0 -11.8781
-17.2213 0 -15.0834
37.1887 0 12.7426
-4.06916 0 7.9418
-26.6706 0 -22.5292
7.05734 0 12.791
-8.80731 0 10.4532
12.7272 0 -9.36215
14.3269 0 -30.6738
-1.9382 0 1.30365
-18.7883 0 23.3162
4.13923 0 26.3864
-130.474 0 -137.098
-0.690363 0 14.4466
-300.303 0 -115.934
3.64105 0 1.56343
306.21 0 119.334
-7.93278 0 -1.31908
8.61082 0 -6.52589
0.688361 0 -16.7613
-15.008 0 15.9578
-3.4423 0 -17.6445
2.16064 0 -13.2808
-1.10143 0 -3.17601
1.10143 0 -3.17601
-2.16064 0 -13.2808
3.4423 0 -17.6445
15.008 0 15.9578
-0.688361 0 -16.7613
-8.61082 0 -6.52589
7.93278 0 -1.31908
-306.21 0 119.334
-3.64105 0 1.56343
300.303 0 -115.934
0.690363 0 14.4466
130.474 0 -137.098
-4.13923 0 26.3864
18.7883 0 23.3162
1.9382 0 1.30365
-14.3269 0 -30.6738
-12.7272 0 -9.36215
8.80731 0 10.4532
-7.05734 0 12.791
26.6706 0 -22.5292
4.06916 0 7.9418
-37.1887 0 12.7426
17.2213 0 -15.0834
7.91498 0 -11.8781
-8.12851 0 -3.81479
1.67397 0 -1.94912
-3.58542 0 -18.1445
1.07911 0 2.4746
11.6314 0 -33.2697
-16.553 0 16.6036
4.86062 0 -11.5318
-0.534397 0 40.5574
6.95496 0 -11.5061
-11.7048 0 2.81027
18.4222 0 -5.13715
-17.43 0 3.13451
22.1876 0 -3.60315
22.9405 0 11.5497
12.4151 0 15.2423
-8.21798 0 -28.9941
-1.83677 0 -1.10601
23.4744 0 24.1115
9.90871 0 -53.1812
-19.5813 0 -28.2578
14.9198 0 14.4756
-16.1572 0 0.661288
-14.8473 0 -19.2208
-33.8125 0 -30.8668
-22.1088 0 -51.5289
50.9488 0 80.0603
56.2106 0 -15.9989
-12.2098 0 -30.4961
11.7409 0 -37.5076
0.155483 0 16.5349
-1.51211 0 18.8586
-10.2883 0 13.563
10.2237 0 19.6468
4.02105 0 2.57415
-28.721 0 -41.6361
10.5741 0 18.341
-10.5741 0 18.341
28.721 0 -41.6361
-4.02105 0 2.57415
-10.2237 0 19.6468
10.2883 0 13.563
1.51211 0 18.8586
-0.155483 0 16.5349
-11.7409 0 -37.5076
12.2098 0 -30.4961
-56.2106 0 -15.9989
-50.9488 0 80.0603
22.1088 0 -51.5289
33.8125 0 -30.8668
14.8473 0 -19.2208
16.1572 0 0.661288
-14.9198 0 14.4756
19.5813 0 -28.2578
-9.90871 0 -53.1812
-23.4744 0 24.1115
1.83677 0 -1.10601
8.21798 0 -28.9941
-12.4151 0 15.2423
-22.9405 0 11.5497
-22.1876 0 -3.60315
17.43 0 3.13451
-18.4222 0 -5.13715
11.7048 0 2.81027
-6.95496 0 -11.5061
0.534397 0 40.5574
-4.86062 0 -11.5318
7.93892 0 -3.62744
-24.2074 0 -4.06885
30.0494 0 -9.77037
-7.03334 0 8.76145
-15.2524 0 -12.3807
-22.0774 0 6.27949
-22.8008 0 10.7476
-10.7149 0 -12.8296
-18.5153 0 -24.1856
-13.7955 0 10.4281
-42.4064 0 -7.86565
97.5971 0 -29.9475
7.64387 0 29.5672
5.17405 0 17.8827
11.0413 0 33.3623
-6.17012 0 7.95741
-5.36299 0 19.6432
33.2501 0 -12.4043
14.1138 0 -3.34965
43.5259 0 65.0072
3.95731 0 -9.622
6.44215 0 12.0525
-8.79324 0 63.3119
10.7112 0 12.1704
-131.635 0 -0.925249
-30.2995 0 -32.6094
-124.899 0 3.39645
143.604 0 -61.0478
63.211 0 -45.8958
24.528 0 53.0268
-24.528 0 53.0268
-63.211 0 -45.8958
-143.604 0 -61.0478
124.899 0 3.39645
30.2995 0 -32.6094
131.635 0 -0.925249
-10.7112 0 12.1704
8.79324 0 63.3119
-6.44215 0 12.0525
-3.95731 0 -9.622
-43.5259 0 65.0072
-14.1138 0 -3.34965
-33.2501 0 -12.4043
5.36299 0 19.6432
6.17012 0 7.95741
-11.0413 0 33.3623
-5.17405 0 17.8827
-7.64387 0 29.5672
-97.5971 0 -29.9475
42.4064 0 -7.86565
13.7955 0 10.4281
18.5153 0 -24.1856
10.7149 0 -12.8296
22.8008 0 10.7476
22.0774 0 6.27949
15.2524 0 -12.3807
7.03334 0 8.76145
-30.0494 0 -9.77037
24.2074 0 -4.06885
-7.93892 0 -3.62744
-12.0589 0 -6.10693
7.28519 0 21.78
0.515162 0 2.27982
7.27759 0 -10.2407
-27.8466 0 11.0106
38.7369 0 -6.37525
10.1139 0 -31.6309
14.0721 0 8.80143
-7.26008 0 -3.84304
-32.55 0 -29.315
-76.9252 0 -61.8729
-25.1799 0 -12.5116
-17.3159 0 -26.2553
-45.7311 0 -18.884
-34.0728 0 -16.8056
23.5243 0 -53.8975
-34.4514 0 3.86343
-23.7492 0 7.48991
54.2835 0 -18.1134
-272.657 0 59.4366
256.751 0 -59.7451
42.3557 0 -104.262
-37.8143 0 -40.5628
-9.38197 0 -7.64449
-81.892 0 7.14525
122.169 0 -28.2087
11.9845 0 40.8877
27.6367 0 84.8261
-4.57198 0 -16.5011
-1.04693 0 -0.990585
1.04693 0 -0.990585
4.57198 0 -16.5011
-27.6367 0 84.8261
-11.9845 0 40.8877
-122.169 0 -28.2087
81.892 0 7.14525
9.38197 0 -7.64449
37.8143 0 -40.5628
-42.3557 0 -104.262
-256.751 0 -59.7451
272.657 0 59.4366
-54.2835 0 -18.1134
23.7492 0 7.48991
34.4514 0 3.86343
-23.5243 0 -53.8975
34.0728 0 -16.8056
45.7311 0 -18.884
17.3159 0 -26.2553
25.1799 0 -12.5116
76.9252 0 -61.8729
32.55 0 -29.315
7.26008 0 -3.84304
-14.0721 0 8.80143
-10.1139 0 -31.6309
-38.737 0 -6.37525
27.8466 0 11.0106
-7.27759 0 -10.2407
-0.515162 0 2.27982
-7.28519 0 21.78
12.0589 0 -6.10693
-14.8608 0 -23.2865
18.7376 0 13.79
6.39949 0 -1.92857
9.47651 0 -12.2723
-47.6386 0 -22.7555
1.88607 0 12.0966
-2.03719 0 25.4624
-38.2789 0 -0.0553725
45.2373 0 -9.64203
27.4055 0 26.0199
7.9709 0 58.6429
50.7778 0 114.005
23.2212 0 50.4426
16.785 0 36.2181
9.05455 0 31.2914
-6.12978 0 45.7055
5.09317 0 48.296
-4.75263 0 32.6609
-41.8401 0 -129.369
-105.283 0 -162.556
-11.4102 0 -75.7548
-19.217 0 123.335
45.0091 0 -59.0659
32.504 0 56.3293
-56.3741 0 -54.675
67.5762 0 35.2871
-215.305 0 -21.7957
226.735 0 -50.7022
-40.6874 0 9.9713
-20.0417 0 -188.587
20.0417 0 -188.587
40.6874 0 9.9713
-226.735 0 -50.7022
215.305 0 -21.7957
-67.5762 0 35.2871
56.3741 0 -54.675
-32.504 0 56.3293
-45.0091 0 -59.0659
19.217 0 123.335
11.4102 0 -75.7548
105.283 0 -162.556
41.8401 0 -129.369
4.75263 0 32.6609
-5.09317 0 48.296
6.12978 0 45.7055
-9.05455 0 31.2914
-16.785 0 36.2181
-23.2212 0 50.4426
-50.7778 0 114.005
-7.9709 0 58.6429
-27.4055 0 26.0199
-45.2373 0 -9.64203
38.2789 0 -0.0553725
2.03719 0 25.4624
-1.88607 0 12.0966
47.6386 0 -22.7555
-9.47651 0 -12.2723
-6.39949 0 -1.92857
-18.7376 0 13.79
14.8608 0 -23.2865
1.14914 0 -40.7003
-10.3782 0 8.27874
-6.85367 0 8.85354
-0.721997 0 -9.88242
3.05412 0 14.2461
-0.376019 0 13.3918
21.1284 0 -3.85582
5.80244 0 -18.1974
6.13577 0 -13.7546
7.2363 0 -2.47151
4.81114 0 -1.64844
0.982756 0 -6.40302
3.6283 0 -6.44118
7.0116 0 -4.03131
-1.9888 0 -2.75061
-14.5816 0 -2.1942
21.3654 0 -3.14622
0.621389 0 -1.91365
-28.9022 0 158.438
47.4253 0 63.4106
22.4964 0 2.87802
-31.3633 0 18.4992
-151.015 0 22.0107
122.652 0 43.1639
-115.17 0 -237.368
-43.9469 0 7.76972
-53.2391 0 0.153616
4.1269 0 2.09437
-6.76056 0 12.7928
21.8025 0 186.256
-21.8025 0 186.256
6.76056 0 12.7928
-4.1269 0 2.09437
53.2391 0 0.153615
43.9469 0 7.76972
115.17 0 -237.368
-122.652 0 43.1639
151.015 0 22.0107
31.3633 0 18.4992
-22.4964 0 2.87802
-47.4253 0 63.4106
28.9022 0 158.438
-0.621389 0 -1.91365
-21.3654 0 -3.14622
14.5816 0 -2.1942
1.9888 0 -2.75061
-7.0116 0 -4.03131
-3.6283 0 -6.44118
-0.982756 0 -6.40302
-4.81114 0 -1.64844
-7.2363 0 -2.47151
-6.13577 0 -13.7546
-5.80244 0 -18.1974
-21.1284 0 -3.85582
0.376019 0 13.3918
-3.05412 0 14.2461
0.721997 0 -9.88242
6.85367 0 8.85354
10.3782 0 8.27874
-1.14914 0 -40.7003
7.66868 0 61.4216
-4.07837 0 -37.1147
-4.09235 0 -12.4476
16.233 0 -32.1106
-33.4608 0 -12.8076
34.7424 0 -10.4166
-0.994336 0 -26.4819
-7.2614 0 -9.448
-9.76164 0 10.815
-7.43836 0 -4.44472
-2.29501 0 -5.43105
-1.66641 0 -5.82568
-1.54377 0 -5.86091
2.89327 0 -5.57517
-4.23498 0 -5.27166
-8.7381 0 -4.42423
4.76316 0 -1.73935
-47.7758 0 -190.737
-6.92336 0 -207.153
-23.4262 0 -148.782
122.327 0 82.6353
-79.8795 0 -31.5928
71.7404 0 -38.1416
-29.9158 0 4.15241
-58.5843 0 27.4467
191.032 0 211.845
12.1965 0 49.7745
6.15351 0 -0.916857
-12.0068 0 -37.3016
13.1459 0 8.36921
-13.1459 0 8.36921
12.0068 0 -37.3016
-6.15351 0 -0.916856
-12.1965 0 49.7745
-191.032 0 211.845
58.5843 0 27.4467
29.9158 0 4.15241
-71.7404 0 -38.1416
79.8795 0 -31.5928
-122.327 0 82.6353
23.4262 0 -148.782
6.92336 0 -207.153
47.7758 0 -190.737
-4.76316 0 -1.73935
8.7381 0 -4.42423
4.23498 0 -5.27166
-2.89327 0 -5.57517
1.54377 0 -5.86091
1.66641 0 -5.82568
2.29501 0 -5.43105
7.43836 0 -4.44472
9.76164 0 10.815
7.2614 0 -9.448
0.994336 0 -26.4819
-34.7424 0 -10.4166
33.4608 0 -12.8076
-16.233 0 -32.1106
4.09235 0 -12.4476
4.07837 0 -37.1147
-7.66868 0 61.4216
-77.0341 0 -38.5697
57.1403 0 30.4975
-37.002 0 -47.715
50.8214 0 25.0808
7.80321 0 -4.9272
-9.22673 0 -9.38164
-2.5027 0 14.4667
0.0187494 0 18.7948
-0.972569 0 -0.421705
-1.35227 0 -4.10339
2.81939 0 -5.27282
1.66 0 -5.83945
2.25872 0 -5.76962
4.57649 0 -4.61529
-4.62217 0 -3.59609
-3.73595 0 -2.83501
19.4839 0 1.19577
16.4632 0 196.907
47.445 0 140.447
33.7369 0 108.059
13.8073 0 -86.1507
9.5838 0 88.363
83.0896 0 -23.7958
40.9777 0 -74.1348
14.6113 0 -13.8422
-3.70671 0 8.53115
30.959 0 -76.2075
42.662 0 -67.6443
-20.4453 0 26.2297
39.0973 0 -35.6468
-39.0973 0 -35.6468
20.4453 0 26.2297
-42.662 0 -67.6443
-30.959 0 -76.2075
3.70671 0 8.53115
-14.6113 0 -13.8422
-40.9777 0 -74.1348
-83.0896 0 -23.7958
-9.5838 0 88.363
-13.8073 0 -86.1507
-33.7369 0 108.059
-47.445 0 140.447
-16.4632 0 196.907
-19.4839 0 1.19577
3.73595 0 -2.83501
4.62217 0 -3.59609
-4.57649 0 -4.61529
-2.25872 0 -5.76962
-1.66 0 -5.83945
-2.81939 0 -5.27282
1.35227 0 -4.10339
0.972569 0 -0.421705
-0.0187495 0 18.7948
2.5027 0 14.4667
9.22673 0 -9.38164
-7.80321 0 -4.9272
-50.8214 0 25.0808
37.002 0 -47.715
-57.1403 0 30.4975
77.0341 0 -38.5697
9.76213 0 -5.13427
-4.47895 0 26.1605
1.96669 0 63.784
-3.80243 0 14.7998
1.92185 0 4.65124
1.43761 0 18.0811
-0.209782 0 11.0628
-0.266702 0 2.37884
3.55868 0 0.0269734
1.9602 0 -0.204373
5.05164 0 -0.686378
3.5412 0 -0.978962
1.91861 0 -0.106862
3.4431 0 1.25681
-7.85956 0 1.66274
2.86882 0 2.98495
8.63108 0 3.31798
-90.7843 0 -67.224
-38.7123 0 -103.593
-158.087 0 -66.1392
-2.95137 0 38.6799
-41.1426 0 18.2641
-45.4691 0 46.3002
6.97413 0 99.4214
-145.651 0 -5.57036
134.2 0 -75.6791
-24.569 0 47.7159
-16.5966 0 47.5134
-1.39004 0 12.4143
5.58715 0 -29.836
-5.58714 0 -29.836
1.39004 0 12.4143
16.5966 0 47.5134
24.569 0 47.7159
-134.2 0 -75.6791
145.651 0 -5.57036
-6.97413 0 99.4214
45.4691 0 46.3002
41.1426 0 18.2641
2.95137 0 38.6799
158.087 0 -66.1392
38.7123 0 -103.593
90.7843 0 -67.224
-8.63108 0 3.31798
-2.86882 0 2.98495
7.85956 0 1.66274
-3.4431 0 1.25681
-1.91861 0 -0.106862
-3.5412 0 -0.978962
-5.05164 0 -0.686378
-1.9602 0 -0.204373
-3.55868 0 0.0269734
0.266702 0 2.37884
0.209782 0 11.0628
-1.43761 0 18.0811
-1.92185 0 4.65124
3.80243 0 14.7998
-1.96669 0 63.784
4.47895 0 26.1605
-9.76213 0 -5.13427
9.76194 0 5.13418
-4.47924 0 -26.1593
1.96884 0 -63.7793
-3.80036 0 -14.795
1.92647 0 -4.65899
1.44739 0 -18.171
-0.105058 0 -9.83809
0.0583799 0 -8.09338
3.46435 0 0.31776
2.06033 0 0.175961
4.94534 0 0.586459
3.31949 0 2.26364
1.95674 0 4.44462
4.09894 0 6.61222
-7.55413 0 7.44159
-92.4433 0 2.37469
-45.0706 0 -32.9511
42.1717 0 -64.4504
82.3543 0 34.2069
-25.0372 0 27.3625
154.795 0 -171.179
-22.9217 0 -5.57977
-76.6313 0 -12.7122
-37.3365 0 -86.2089
-7.06899 0 -108.266
13.4023 0 39.0165
-91.9329 0 -132.313
-10.951 0 5.96346
-34.1307 0 -11.0514
-85.409 0 26.7808
85.409 0 26.7808
34.1307 0 -11.0514
10.951 0 5.96346
91.9329 0 -132.313
-13.4023 0 39.0165
7.06898 0 -108.266
37.3365 0 -86.2089
76.6313 0 -12.7122
22.9217 0 -5.57977
-154.795 0 -171.179
25.0372 0 27.3625
-82.3543 0 34.2069
-42.1717 0 -64.4504
45.0706 0 -32.9511
92.4433 0 2.37469
7.55413 0 7.44159
-4.09894 0 6.61222
-1.95674 0 4.44462
-3.31949 0 2.26364
-4.94534 0 0.586459
-2.06033 0 0.175961
-3.46435 0 0.31776
-0.0583799 0 -8.09338
0.105059 0 -9.83809
-1.44739 0 -18.171
-1.92647 0 -4.65899
3.80036 0 -14.795
-1.96884 0 -63.7793
4.47924 0 -26.1593
-9.76194 0 5.13418
-77.0303 0 38.5679
57.1361 0 -30.4956
-36.9997 0 47.7159
50.8192 0 -25.0639
7.80598 0 4.86832
-9.15718 0 9.26192
-2.01861 0 -13.8786
0.94922 0 -33.0862
-0.790839 0 2.16819
-0.660505 0 4.86095
4.67605 0 7.98074
2.10585 0 11.2794
-1.83387 0 9.36237
-194.12 0 0.309985
155.683 0 11.4253
-39.1459 0 -17.3626
-9.06353 0 37.5008
93.9844 0 -26.4486
-113.475 0 -51.3345
-238.951 0 -342.77
-109.331 0 -17.397
126.82 0 59.8581
41.7028 0 -92.9574
-53.8671 0 71.7465
-134.933 0 -106.344
155.482 0 114.936
-156.806 0 12.524
187.983 0 150.596
-0.361778 0 -93.9205
17.6466 0 -251.71
-17.6466 0 -251.71
0.361784 0 -93.9205
-187.983 0 150.596
156.806 0 12.524
-155.482 0 114.936
134.933 0 -106.344
53.8671 0 71.7465
-41.7028 0 -92.9574
-126.82 0 59.8581
109.331 0 -17.397
238.951 0 -342.77
113.475 0 -51.3345
-93.9844 0 -26.4486
9.06353 0 37.5008
39.1459 0 -17.3626
-155.683 0 11.4253
194.12 0 0.309985
1.83387 0 9.36237
-2.10585 0 11.2794
-4.67605 0 7.98074
0.660505 0 4.86095
0.790839 0 2.16819
-0.94922 0 -33.0862
2.01861 0 -13.8786
9.15718 0 9.26192
-7.80598 0 4.86832
-50.8192 0 -25.0639
36.9997 0 47.7159
-57.1361 0 -30.4956
77.0303 0 38.5679
7.66919 0 -61.4676
-4.07971 0 37.115
-4.07101 0 12.4228
16.2326 0 32.1898
-33.3383 0 11.337
34.574 0 9.16735
-1.89005 0 26.6207
-6.17225 0 34.9101
-8.16287 0 1.48894
-8.32492 0 6.48908
-198.068 0 6.97415
120.473 0 1.46831
74.3962 0 5.13475
-13.2331 0 0.329635
-154.887 0 10.4256
43.1441 0 -40.4986
50.6698 0 -95.266
-218.494 0 -61.491
214.392 0 -183.34
145.169 0 24.4327
268.68 0 85.9008
-76.7581 0 79.8011
69.4106 0 15.3116
-269.808 0 -225.694
157.229 0 88.5439
-23.2938 0 -29.7069
-30.0362 0 -103.182
-22.9625 0 65.2213
-55.2399 0 139.701
-555.793 0 182.339
555.793 0 182.339
55.2399 0 139.701
22.9625 0 65.2213
30.0362 0 -103.182
23.2938 0 -29.7069
-157.229 0 88.5439
269.808 0 -225.694
-69.4106 0 15.3116
76.7581 0 79.8011
-268.68 0 85.9008
-145.169 0 24.4327
-214.392 0 -183.34
218.494 0 -61.491
-50.6698 0 -95.266
-43.1441 0 -40.4986
154.887 0 10.4256
13.2331 0 0.329635
-74.3962 0 5.13475
-120.473 0 1.46831
198.068 0 6.97415
8.32492 0 6.48908
8.16287 0 1.48894
6.17225 0 34.9101
1.89005 0 26.6207
-34.574 0 9.16735
33.3383 0 11.337
-16.2326 0 32.1898
4.07101 0 12.4228
4.07971 0 37.115
-7.66919 0 -61.4676
1.1467 0 40.4254
-10.3764 0 -8.33969
-7.59911 0 -9.52335
-0.733802 0 10.0956
6.28792 0 -27.9845
5.67728 0 -39.4098
19.3752 0 13.177
-0.422974 0 16.6025
3.07001 0 9.67561
-6.41427 0 -3.31561
-110.405 0 -34.9942
65.2978 0 -57.2876
50.7812 0 -11.7405
-62.3892 0 -76.9784
24.0606 0 -55.8276
-155.993 0 34.0224
134.563 0 5.01688
-84.2662 0 89.0228
18.0808 0 76.8498
-7.64389 0 99.645
85.025 0 509.286
-8.54981 0 -35.7734
-118.084 0 27.3832
59.4213 0 -36.5554
198.675 0 248.047
-92.478 0 9.01977
48.6998 0 -225.341
-52.056 0 -144.466
-44.2252 0 -131.3
-43.2419 0 -97.7884
43.2419 0 -97.7884
44.2252 0 -131.3
52.056 0 -144.466
-48.6998 0 -225.341
92.478 0 9.01977
-198.675 0 248.047
-59.4213 0 -36.5554
118.084 0 27.3832
8.54981 0 -35.7734
-85.025 0 509.286
7.64389 0 99.645
-18.0808 0 76.8498
84.2662 0 89.0228
-134.563 0 5.01688
155.993 0 34.0224
-24.0606 0 -55.8276
62.3892 0 -76.9784
-50.7812 0 -11.7405
-65.2978 0 -57.2876
110.405 0 -34.9942
6.41427 0 -3.31561
-3.07001 0 9.67561
0.422974 0 16.6025
-19.3752 0 13.177
-5.67728 0 -39.4098
-6.28792 0 -27.9845
0.733802 0 10.0956
7.59911 0 -9.52335
10.3764 0 -8.33969
-1.1467 0 40.4254
-14.8729 0 22.1576
18.6109 0 -14.6273
5.91915 0 -1.76784
6.75045 0 12.8682
-57.1403 0 38.8325
-111.4 0 -10.3117
-52.8285 0 25.9584
178.302 0 -27.0292
26.8894 0 -39.2481
35.5293 0 -49.5784
4.40415 0 -73.1962
-118.038 0 73.4523
95.2098 0 6.97183
-12.8356 0 -1.07398
27.7903 0 79.893
24.5898 0 18.3389
-26.3895 0 -3.28157
-20.4301 0 -12.1473
63.4908 0 32.9129
27.2756 0 108.965
-31.7359 0 -38.4049
-25.688 0 -0.281186
-31.8704 0 -47.9995
-22.268 0 -143.141
64.6405 0 -163.703
-45.3976 0 2.5536
125.859 0 94.0572
119.642 0 204.567
84.6961 0 -57.8782
49.4881 0 80.8823
-49.4881 0 80.8823
-84.6961 0 -57.8782
-119.642 0 204.567
-125.859 0 94.0572
45.3976 0 2.5536
-64.6405 0 -163.703
22.268 0 -143.141
31.8704 0 -47.9995
25.688 0 -0.281186
31.7359 0 -38.4049
-27.2756 0 108.965
-63.4908 0 32.9129
20.4301 0 -12.1473
26.3895 0 -3.28157
-24.5898 0 18.3389
-27.7903 0 79.893