# vtk DataFile Version 3.0
SiWiRVisFile
ASCII
DATASET UNSTRUCTURED_GRID
POINTS 1600 DOUBLE
77.2237 100 72.34
75.6969 100 72.7646
76.5988 100 73.3689
78.4369 100 73.3681
79.4043 100 73.7966
80.6588 100 74.1423
82.131 100 73.9656
83.1441 100 74.3384
84.2524 100 74.4841
83.6494 100 73.4144
92.3981 100 68.4882
91.2457 100 68.2735
91.7228 100 69.3039
89.8795 100 68.3037
85.2248 100 67.7025
90.3571 100 59.276
91.5203 100 59.1628
91.6467 100 57.3266
88.135 100 51.8438
93.4933 100 56.5738
106.208 100 36.0111
106.975 100 35.2347
106.123 100 34.0089
107.243 100 34.0328
104.995 100 34.2057
112.18 100 35.4985
111.363 100 27.8689
111.879 100 26.6862
110.679 100 29.3757
111.656 100 28.8756
112.714 100 28.9325
113.745 100 29.2788
112.544 100 27.8589
113.508 100 28.2019
114.141 100 33.6059
119.136 100 34.3211
116.866 100 33.5972
117.949 100 34.1257
117.316 100 35.0074
118.018 100 36.2126
130.383 100 56.4674
136.357 100 51.8438
131.748 100 57.6173
133.265 100 59.2653
134.914 100 58.8668
135.725 100 69.3098
134.707 100 67.4545
134.27 100 70.2183
133.612 100 68.0238
133.39 100 69.1947
140.685 100 73.0439
140.216 100 74.4645
141.316 100 73.992
142.346 100 73.7263
144.268 100 74.2599
145.193 100 73.4895
146.252 100 72.9985
148.102 100 73.5704
148.883 100 72.7453
147.697 100 72.4318
74.5784 100 73.6203
75.5866 100 74.1488
77.5111 100 73.9932
78.5794 100 74.4576
79.5583 100 74.9387
81.4537 100 74.8617
82.5977 100 75.2172
83.6583 100 75.4039
84.6866 100 75.5349
85.9522 100 75.5629
87.085 100 75.7017
92.0889 100 67.4796
90.6676 100 69.277
90.9815 100 65.3775
91.1901 100 60.1432
90.7162 100 67.0331
92.173 100 58.4017
92.8944 100 57.6026
94.1102 100 57.8536
97.024 100 55.4028
105.684 100 35.0236
96.7997 100 42.1282
106.431 100 44.8005
109.987 100 32.5371
108.189 100 33.27
111.222 100 34.8551
110.558 100 33.8813
109.253 100 33.5623
107.051 100 25.3734
111.779 100 30.261
112.847 100 29.9989
117.72 100 25.4302
113.443 100 31.7856
115.854 100 33.2039
114.82 100 35.0013
115.951 100 34.5166
114.442 100 32.6959
118.301 100 44.8129
127.693 100 42.1282
118.431 100 35.097
126.95 100 56.3351
128.96 100 57.2822
131.507 100 56.4492
133.79 100 58.2748
133.179 100 66.6921
132.879 100 60.5134
132.202 100 63.9729
134.598 100 68.9928
132.148 100 67.2196
138.042 100 75.9342
138.947 100 75.2067
139.983 100 75.6917
140.97 100 75.2942
142.028 100 74.9197
143.095 100 74.5324
145.001 100 75.0036
146.013 100 74.5645
147.069 100 74.0255
148.929 100 74.3961
149.734 100 73.5308
74.6808 100 74.7296
75.6281 100 75.3085
76.614 100 74.6118
77.5468 100 75.1783
78.5447 100 75.6054
80.5541 100 75.4943
81.5686 100 75.9205
82.8939 100 76.2022
84.0498 100 76.3701
85.3845 100 76.387
86.511 100 76.5585
86.9611 100 77.6769
88.9011 100 77.0782
91.8378 100 66.2801
90.6022 100 63.3578
93.3437 100 62.153
92.5134 100 59.4724
93.2718 100 58.661
94.6949 100 58.7544
95.8443 100 55.6922
98.0485 100 54.9505
104.641 100 46.5896
105.554 100 45.8175
106.679 100 46.2642
99.6957 100 43.1146
107.587 100 45.5659
107.437 100 44.2797
105.29 100 44.4595
110.884 100 31.5979
111.963 100 31.9235
112.588 100 31.0001
113.634 100 30.7641
121.452 100 44.456
117.952 100 43.7687
117.86 100 45.8822
121.111 100 45.597
118.428 100 46.8609
119.064 100 45.8321
120.661 100 46.687
126.016 100 55.3988
129.195 100 56.0546
130.216 100 57.6523
132.682 100 58.363
131.902 100 59.2128
132.419 100 61.6057
132.435 100 62.7533
132.715 100 65.7135
136.059 100 76.2762
137.344 100 76.9432
138.637 100 76.9291
139.717 100 76.7319
140.773 100 76.4387
141.878 100 76.0804
142.943 100 75.5712
143.948 100 75.2699
145.812 100 75.7107
146.897 100 75.1579
147.93 100 74.7702
148.922 100 75.4637
149.949 100 74.8168
74.6156 100 75.8851
75.6589 100 76.4043
76.6667 100 75.8462
77.7239 100 76.3038
79.7038 100 76.0273
80.6945 100 76.6873
81.7576 100 77.0374
82.9608 100 77.4199
84.617 100 77.3143
85.7933 100 77.5834
86.0744 100 79.249
88.0493 100 78.0725
87.7673 100 76.8498
92.2697 100 65.3332
91.5014 100 64.2797
92.1299 100 63.2652
93.3927 100 60.6072
92.2323 100 61.2131
93.9505 100 59.5957
95.1822 100 59.7327
95.6384 100 57.5135
98.5211 100 56.241
104.521 100 45.2101
105.483 100 50.4933
105.646 100 46.9392
105.805 100 48.2343
108.383 100 48.0741
110.655 100 48.0278
108.569 100 44.2475
111.712 100 33.3627
113.284 100 32.9221
115.981 100 44.1545
115.278 100 46.0237
115.694 100 47.0694
117.869 100 47.7807
119.421 100 46.9218
119 100 47.9285
120.104 100 44.6035
125.685 100 56.4154
128.289 100 58.3174
129.456 100 59.161
131.085 100 59.9654
131.733 100 60.8138
131.435 100 62.0991
131.194 100 63.1919
131.8 100 65.0361
131.708 100 66.0732
136.893 100 75.4881
136.961 100 78.2481
138.052 100 78.1038
139.308 100 77.8212
140.542 100 77.5353
141.554 100 77.1397
142.669 100 76.7277
143.724 100 76.3778
144.793 100 76.1084
146.826 100 76.2569
147.889 100 75.8859
148.672 100 76.6314
150.017 100 76.0018
74.7737 100 77.0468
75.783 100 77.4684
76.8364 100 76.8646
78.7834 100 76.7364
79.7825 100 77.2662
80.7531 100 77.7459
81.8538 100 78.1596
82.8426 100 78.6511
83.8953 100 78.1289
84.9318 100 78.3451
85.7723 100 80.3278
89.3553 100 78.5901
89.8063 100 76.1423
95.2757 100 63.5465
92.6663 100 64.2939
94.438 100 61.5493
96.3664 100 61.7288
95.7644 100 60.7361
95.8866 100 58.6332
96.8944 100 57.6784
96.5047 100 56.6814
102.688 100 54.5286
104.656 100 49.3356
107.161 100 48.5496
106.778 100 47.4998
108.16 100 49.1522
109.307 100 48.6346
110.255 100 49.0395
107.662 100 46.7671
110.937 100 35.8732
111.36 100 36.8543
116.445 100 45.9305
113.649 100 48.9196
114.76 100 48.1647
115.816 100 48.3716
117.212 100 46.7515
117.584 100 48.8222
117.741 100 50.0677
121.971 100 53.816
128.157 100 56.5232
127.564 100 57.3986
128.394 100 59.3922
129.912 100 60.1968
130.659 100 61.1126
129.214 100 61.5117
130.405 100 65.2954
130.389 100 64.0797
136.241 100 77.4121
135.808 100 78.5426
138.623 100 80.0738
139.053 100 78.9202
140.129 100 78.7
141.248 100 78.3535
142.469 100 77.8151
143.599 100 77.4898
144.604 100 77.116
145.625 100 76.7855
147.589 100 77.0522
148.436 100 77.6971
149.541 100 77.2191
75.1112 100 78.296
75.9925 100 78.8697
76.9375 100 78.1908
77.8182 100 77.4329
78.8877 100 77.843
79.7909 100 78.4687
80.8363 100 78.9506
81.9686 100 79.3654
82.9569 100 79.7498
83.8958 100 79.3167
84.976 100 79.5084
87.0462 100 78.7803
89.7706 100 79.6468
88.1992 100 75.6641
90.9237 100 76.0605
94.2862 100 62.932
96.3463 100 62.8902
97.5741 100 61.8252
97.0606 100 60.7806
96.8914 100 58.8594
97.9913 100 57.5345
100.358 100 56.7829
104.35 100 53.0876
104.6 100 51.9699
105.984 100 49.3709
107.037 100 49.6335
108.66 100 51.5224
108.847 100 49.975
112.039 100 47.9043
111.304 100 47.1778
114.679 100 47.1127
113.77 100 50.0132
115.271 100 49.3129
115.968 100 50.5384
116.683 100 49.6711
118.762 100 49.0024
118.909 100 50.2283
121.354 100 52.7698
124.317 100 57.4121
126.426 100 57.2643
127.242 100 58.594
128.843 100 60.5581
127.81 100 61.2984
128.663 100 62.6072
130.125 100 62.2155
135.071 100 76.0176
136.575 100 73.4157
135.253 100 79.7561
137.528 100 79.4761
139.767 100 79.8471
140.913 100 79.7325
141.724 100 80.4405
142.163 100 79.3859
143.167 100 78.6273
144.395 100 78.2972
145.643 100 77.8732
146.57 100 77.3816
147.471 100 78.1965
148.42 100 78.7554
149.401 100 78.3189
74.0147 100 78.6096
75.0312 100 79.5
77.0154 100 79.3278
77.9199 100 78.6562
79.0077 100 79.3507
78.8412 100 81.606
80.9708 100 80.0545
82.0212 100 80.4542
83.1491 100 80.8975
84.2183 100 80.3783
85.4104 100 81.3234
88.0755 100 79.1532
90.1619 100 80.8432
89.3398 100 75.1933
95.1679 100 64.6983
95.2776 100 62.3891
96.2137 100 64.028
98.2796 100 62.5664
97.5627 100 59.6901
98.1129 100 58.7115
99.2938 100 57.0935
101.395 100 56.3748
103.81 100 54.3134
106.57 100 51.0328
109.052 100 52.772
109.644 100 50.8022
107.494 100 53.845
110.519 100 50.1458
106.616 100 54.4258
108.454 100 54.9147
117.431 100 55.5372
116.747 100 54.6695
114.612 100 50.9216
115.337 100 54.8387
114.971 100 52.1125
116.079 100 51.7214
117.004 100 50.8455
120.827 100 53.7678
122.226 100 55.5942
125.436 100 57.8227
126.077 100 58.7781
127.677 100 60.1946
126.725 100 60.9357
127.616 100 63.2805
129.567 100 63.2284
129.421 100 64.5409
135.731 100 75.1404
130.36 100 80.6423
136.494 100 79.8902
139.488 100 80.9259
140.702 100 80.9254
141.741 100 81.6134
142.85 100 80.3982
143.583 100 79.6022
145.228 100 80.4301
145.414 100 79.3489
146.37 100 78.8203
147.393 100 79.3625
149.301 100 79.4118
150.525 100 78.6241
73.8004 100 79.7038
75.0903 100 80.5937
76.0344 100 80.0296
76.9635 100 80.4409
78.0106 100 79.8709
77.9458 100 80.9159
79.7796 100 80.3303
81.0287 100 81.105
82.0672 100 81.596
83.7348 100 81.8142
84.7735 100 82.2475
85.8758 100 82.5573
86.9983 100 79.9707
86.967 100 81.933
87 100 83.0125
91.0288 100 79.5059
96.4883 100 65.117
97.3641 100 63.3391
99.7323 100 60.2225
98.1585 100 60.6297
98.792 100 59.6888
99.1684 100 58.4248
104.682 100 55.0427
105.716 100 51.6676
107.551 100 51.4146
108.551 100 53.6893
108.026 100 52.667
105.468 100 55.8534
106.559 100 55.6055
109.133 100 57.3937
116.217 100 55.585
119.622 100 55.7238
120.168 100 56.907
116.843 100 52.9643
115.99 100 53.6645
117.148 100 51.9381
118.033 100 51.1459
121.229 100 55.0324
124.448 100 58.6245
126.541 100 59.7585
125.811 100 60.5172
125.644 100 61.9907
126.829 100 62.1051
128.62 100 63.7056
131.301 100 80.0656
137.814 100 82.2322
138.511 100 81.2592
137.249 100 80.5881
138.974 100 82.3183
139.849 100 82.9786
139.994 100 81.9054
142.813 100 81.4941
143.957 100 81.6695
144.017 100 80.6422
146.047 100 81.2686
146.314 100 79.9022
147.292 100 80.5696
148.377 100 79.9634
149.35 100 80.4954
150.701 100 79.7221
74.0282 100 80.9371
74.63 100 81.7749
76.0718 100 81.1159
77.1049 100 81.5903
77.6879 100 83.3427
75.755 100 84.3023
77.9693 100 82.1345
79.927 100 81.4604
80.8378 100 82.1288
79.8709 100 82.6403
82.3241 100 82.7984
83.7529 100 83.7308
84.8799 100 83.3137
86.0401 100 83.6414
88.1525 100 83.3004
90.4834 100 78.6449
97.4419 100 65.7005
97.4184 100 64.5887
99.3483 100 61.9152
101.031 100 61.8778
[...]
POINT_DATA 1600
SCALARS mass double
LOOKUP_TABLE default
1
1
1
1
1
1
1
1
1
1
1
1
1
1
1
1
1
1
1
1
1
1
1
1
1
1
1
1
1
1
1
1
1
1
1
1
1
1
1
1
1
1
1
1
1
1
1
1
1
1
1
1
1
1
1
1
1
1
1
1
1
1
1
1
1
1
1
1
1
1
1
1
1
1
1
1
1
1
1
1
1
1
1
1
1
1
1
1
1
1
1
1
1
1
1
1
1
1
1
1
1
1
1
1
1
1
1
1
1
1
1
1
1
1
1
1
1
1
1
1
1
1
1
1
1
1
1
1
1
1
1
1
1
1
1
1
1
1
1
1
1
1
1
1
1
1
1
1
1
1
1
1
1
1
1
1
1
1
1
1
1
1
1
1
1
1
1
1
1
1
1
1
1
1
1
1
1
1
1
1
1
1
1
1
1
1
1
1
1
1
1
1
1
1
1
1
1
1
1
1
1
1
1
1
1
1
1
1
1
1
1
1
1
1
1
1
1
1
1
1
1
1
1
1
1
1
1
1
1
1
1
1
1
1
1
1
1
1
1
1
1
1
1
1
1
1
1
1
1
1
1
1
1
1
1
1
1
1
1
1
1
1
1
1
1
1
1
1
1
1
1
1
1
1
1
1
1
1
1
1
1
1
1
1
1
1
1
1
1
1
1
1
1
1
1
1
1
1
1
1
1
1
1
1
1
1
1
1
1
1
1
1
1
1
1
1
1
1
1
1
1
1
1
1
1
1
1
1
1
1
1
1
1
1
1
1
1
1
1
1
1
1
1
1
1
1
1
1
1
1
1
1
1
1
1
1
1
1
1
1
1
1
1
1
1
1
1
1
1
1
1
1
1
1
1
1
1
1
1
1
1
1
1
1
1
1
1
1
1
1
1
1
1
1
1
1
1
1
1
1
1
1
1
1
1
1
1
1
1
1
1
1
1
1
1
1
1
1
1
1
1
1
1
1
1
1
1
1
1
1
1
1
1
1
1
1
1
1
1
1
1
1
1
1
1
1
1
1
1
1
1
1
1
1
1
1
1
1
1
1
1
1
1
1
1
1
1
1
1
1
1
1
1
1
1
1
1
1
1
1
1
1
1
1
1
1
1
1
1
1
1
1
1
1
1
1
1
1
1
1
1
1
1
1
1
1
1
1
1
1
1
1
1
1
1
1
1
1
1
1
1
1
1
1
1
1
1
1
1
1
1
1
1
1
1
1
1
1
1
1
1
1
1
1
1
1
1
1
1
1
1
1
1
1
1
1
1
1
1
1
1
1
1
1
1
1
1
1
1
1
1
1
1
1
1
1
1
1
1
1
1
1
1
1
1
1
1
1
1
1
1
1
1
1
1
1
1
1
1
1
1
1
1
1
1
1
1
1
1
1
1
1
1
1
1
1
1
1
1
1
1
1
1
1
1
1
1
1
1
1
1
1
1
1
1
1
1
1
1
1
1
1
1
1
1
1
1
1
1
1
1
1
1
1
1
1
1
1
1
1
1
1
1
1
1
1
1
1
1
1
1
1
1
1
1
1
1
1
1
1
1
1
1
1
1
1
1
1
1
1
1
1
1
1
1
1
1
1
1
1
1
1
1
1
1
1
1
1
1
1
1
1
1
1
1
1
1
1
1
1
1
1
1
1
1
1
1
1
1
1
1
1
1
1
1
1
1
1
1
1
1
1
1
1
1
1
1
1
1
1
1
1
1
1
1
1
1
1
1
1
1
1
1
1
1
1
1
1
1
1
1
1
1
1
1
1
1
1
1
1
1
1
1
1
1
1
1
1
1
1
1
1
1
1
1
1
1
1
1
1
1
1
1
1
1
1
1
1
1
1
1
1
1
1
1
1
1
1
1
1
1
1
1
1
1
1
1
1
1
1
1
1
1
1
1
1
1
1
1
1
1
1
1
1
1
1
1
1
1
1
1
1
1
1
1
1
1
1
1
1
1
1
1
1
1
1
1
1
1
1
1
1
1
1
1
1
1
1
1
1
1
1
1
1
1
1
1
1
1
1
1
1
1
1
1
1
1
1
1
1
1
1
1
1
1
1
1
1
1
1
1
1
1
1
1
1
1
1
1
1
1
1
1
1
1
1
1
1
1
1
1
1
1
1
1
1
1
1
1
1
1
1
1
1
1
1
1
1
1
1
1
1
1
1
1
1
1
1
1
1
1
1
1
1
1
1
1
1
1
1
1
1
1
1
1
1
1
1
1
1
1
1
1
1
1
1
1
1
1
1
1
1
1
1
1
1
1
1
1
1
1
1
1
1
1
1
1
1
1
1
1
1
1
1
1
1
1
1
1
1
1
1
1
1
1
1
1
1
1
1
1
1
1
1
1
1
1
1
1
1
1
1
1
1
1
1
1
1
1
1
1
1
1
1
1
1
1
1
1
1
1
1
1
1
1
1
1
1
1
1
1
1
1
1
1
1
1
1
1
1
1
1
1
1
1
1
1
1
1
1
1
1
1
1
1
1
1
1
1
1
1
1
1
1
1
1
1
1
1
1
1
1
1
1
1
1
1
1
1
1
1
1
1
1
1
1
1
1
1
1
1
1
1
1
1
1
1
1
1
1
1
1
1
1
1
1
1
1
1
1
1
1
1
1
1
1
1
1
1
1
1
1
1
1
1
1
1
1
1
1
1
1
1
1
1
1
1
1
1
1
1
1
1
1
1
1
1
1
1
1
1
1
1
1
1
1
1
1
1
1
1
1
1
1
1
1
1
1
1
1
1
1
1
1
1
1
1
1
1
1
1
1
1
1
1
1
1
1
1
1
1
1
1
1
1
1
1
1
1
1
1
1
1
1
1
1
1
1
1
1
1
1
1
1
1
1
1
1
1
1
1
1
1
1
1
1
1
1
1
1
1
1
1
1
1
1
1
1
1
1
1
1
1
1
1
1
1
1
1
1
1
1
1
1
1
1
1
1
1
1
1
1
1
1
1
1
1
1
1
1
1
1
1
1
1
1
1
1
1
1
1
1
1
1
1
1
1
1
1
1
1
1
1
1
1
1
1
1
1
1
1
1
1
1
1
1
1
1
1
1
1
1
1
1
1
1
1
1
1
1
1
1
1
1
1
1
1
1
1
1
1
1
1
1
1
1
1
1
1
1
1
1
1
1
1
1
1
1
1
1
1
1
1
1
1
1
1
1
1
1
1
1
1
1
1
1
1
1
1
1
1
1
1
1
1
1
1
1
1
1
1
1
1
1
1
1
1
1
1
1
1
1
1
1
1
1
1
1
1
1
1
1
1
1
1
1
1
1
1
1
1
1
1
1
1
1
1
1
1
1
1
1
1
1
1
1
1
1
1
1
1
1
1
1
1
1
1
1
1
1
1
1
1
1
1
1
1
1
1
1
1
1
1
1
1
1
1
1
1
1
1
1
1
1
1
1
1
1
1
1
1
1
1
1
1
1
1
1
1
1
1
1
1
1
1
1
1
1
1
1
1
1
1
1
1
1
1
1
1
1
1
1
1
1
1
1
1
1
1
1
1
1
1
1
1
1
1
1
1
1
1
1
1
1
1
1
1
1
1
1
1
1
1
1
1
1
1
1
1
1
1
1
1
1
1
1
1
1
1
1
1
1
1
1
1
1
1
1
1
1
VECTORS force double
-6.46703 0 16.6936
-15.0439 0 5.47759
5.51908 0 16.4473
-35.6858 0 -23.3955
69.4373 0 3.60754
-30.6627 0 -2.53899
-16.0579 0 4.80886
31.3792 0 2.24019
0.870226 0 -12.2627
20.7849 0 -20.7118
21.8777 0 7.9017
-1.06076 0 -3.55544
13.4888 0 21.8919
20.6535 0 4.84425
0 0 0
17.8383 0 6.62825
-111.429 0 13.3311
17.3826 0 14.5318
0 0 0
-2.70654 0 17.7271
-7.80717 0 7.82602
-3.55068 0 -27.1503
0.499942 0 1.32548
5.75783 0 5.42083
-10.2529 0 -19.8321
-18.86 0 2.35249
3.39325 0 -47.7271
0.673987 0 20.0806
0.616881 0 6.5698
-0.693408 0 39.0893
0.660128 0 5.42683
6.80737 0 20.5046
-93.4848 0 -38.5443
81.149 0 6.93216
-68.3855 0 251.771
16.7851 0 -33.383
18.3383 0 24.7841
1.57071 0 -28.9293
-13.7085 0 10.5945
-0.434679 0 -18.2567
-14.389 0 9.81804
0 0 0
0.804893 0 -0.275921
0.522646 0 28.6499
-13.426 0 -4.9292
-11.4327 0 -1.71863
-13.2792 0 10.1995
-1.31747 0 -20.5514
9.93558 0 1.99739
20.5048 0 -5.55346
2.36334 0 10.2966
5.86371 0 6.30427
-36.6194 0 26.5344
19.1828 0 0.1717
-25.6267 0 -67.5848
5.14382 0 17.9142
3.75578 0 15.8081
3.54545 0 6.69561
-8.70824 0 8.57569
10.4456 0 18.6183
11.343 0 -4.43092
27.0169 0 -18.7362
21.423 0 9.58788
-55.1114 0 36.602
10.3918 0 -5.588
32.0532 0 -12.4806
-92.5355 0 -23.2671
-61.7455 0 -54.6178
86.0435 0 -32.6604
60.8819 0 -91.6952
32.6519 0 -42.8776
-26.3595 0 -43.305
-39.157 0 -17.8193
25.0584 0 -0.503298
-16.3475 0 49.372
16.9909 0 8.02186
58.0318 0 -79.7836
19.3935 0 -21.6056
-28.6183 0 -19.6866
-13.0125 0 13.2369
25.7398 0 24.5001
0 0 0
-6.44624 0 14.947
4.22432 0 8.48133
-14.7589 0 5.63951
10.7642 0 -41.4951
4.26244 0 -4.97691
22.7472 0 -5.24006
0 0 0
-20.0074 0 -15.0076
21.6503 0 -51.2348
0 0 0
-15.7551 0 60.0794
-20.321 0 4.95472
9.53325 0 -9.99479
2.61906 0 -12.4414
68.828 0 -245.512
7.7114 0 24.5485
0 0 0
-24.9529 0 56.0389
12.267 0 -17.3942
4.51146 0 6.09029
0.273851 0 12.1883
13.0241 0 5.07916
1.47695 0 25.3875
-14.6935 0 -1.74689
-10.262 0 -14.0931
-12.201 0 4.6152
6.28515 0 -16.6902
-6.66161 0 8.624
5.23008 0 8.8557
-34.6769 0 -30.9739
38.6521 0 -3.84791
-1.35655 0 -8.46011
20.119 0 -34.2767
27.1883 0 17.926
-16.703 0 -25.0627
-10.7797 0 2.5607
17.6882 0 -52.9262
-14.7408 0 14.2508
-18.5122 0 19.7655
14.3631 0 -12.7243
-30.83 0 7.90674
10.6789 0 -15.1484
49.9711 0 -8.00904
78.8925 0 -57.2035
22.7763 0 34.4964
9.78953 0 83.3829
-12.5127 0 76.2108
-71.3673 0 123.741
-33.4547 0 71.8261
-2.40767 0 -17.8311
1.22009 0 1.90686
-35.6337 0 55.5101
13.6405 0 8.80115
13.2453 0 -4.62226
53.6976 0 27.5314
16.6779 0 -2.31111
12.7009 0 3.68513
17.3919 0 7.81847
3.40021 0 8.78016
-18.5778 0 -25.1363
-0.472588 0 -9.09818
-22.9787 0 2.26406
0 0 0
-11.357 0 -3.46669
0.492329 0 13.3866
27.8845 0 -2.69835
-2.37946 0 5.605
4.78254 0 5.88928
-24.8344 0 73.1056
37.674 0 -57.131
-12.7114 0 11.4396
-2.82508 0 -5.99392
17.8808 0 -15.5976
-7.50599 0 -6.30762
-123.649 0 -28.4719
-18.8491 0 4.92899
-10.5602 0 -7.92754
15.8466 0 -15.2635
5.45121 0 19.1076
-4.99896 0 -13.491
-28.4186 0 -19.283
17.6599 0 -4.25496
37.1409 0 26.1515
-22.4335 0 2.85622
11.6363 0 -23.8291
79.7458 0 24.2565
2.29643 0 3.53803
-27.5694 0 1.64446
-4.3977 0 32.1597
-3.03715 0 -31.7135
-63.5714 0 -70.4043
-57.0917 0 68.0056
22.2659 0 33.3356
43.9226 0 -10.4335
18.7201 0 18.9094
-11.9587 0 -0.469091
8.8102 0 29.6978
-6.77052 0 8.25222
18.546 0 1.09936
16.6254 0 -23.6319
-22.8327 0 -67.702
19.6214 0 -11.7136
-101.268 0 86.4689
7.9086 0 -63.75
7.72165 0 4.18392
-7.95903 0 3.80551
22.2176 0 -30.6411
-2.13312 0 -15.4236
-16.4377 0 5.21575
-5.45278 0 -30.1599
-7.91277 0 -3.86057
2.20905 0 -52.9896
7.58174 0 3.06082
-4.37428 0 14.0434
-4.2795 0 1.63972
11.5823 0 -6.86714
-2.19459 0 -0.835847
3.01809 0 6.23095
14.9737 0 3.73325
-4.19091 0 3.80527
-3.53739 0 29.9151
13.8968 0 0.374642
50.7997 0 17.9196
15.2279 0 -7.32128
-28.9892 0 -17.2438
-7.80947 0 9.76045
-4.98041 0 2.85016
-8.90301 0 0.300654
-3.25454 0 -15.6798
1.19136 0 2.3235
4.42655 0 10.6526
95.357 0 3.48812
-4.1218 0 -6.92731
144.134 0 -10.5795
-15.2277 0 -6.97588
10.8153 0 8.26371
1.93743 0 34.0701
20.0635 0 -36.1391
8.86894 0 -2.16872
-33.6321 0 -5.21099
-3.83645 0 -8.1845
-13.8807 0 -10.2833
3.39647 0 8.22973
-0.952502 0 -53.0311
-25.2179 0 69.1724
-3.26002 0 10.7536
-7.56245 0 10.4523
24.8859 0 -8.08401
12.4685 0 3.3814
-44.6116 0 0.792719
53.2257 0 36.9222
58.6277 0 44.1806
1.53177 0 0.552193
-15.1888 0 -91.4642
-21.0911 0 8.65741
-27.0198 0 -5.58607
-22.0042 0 -33.0209
-22.4301 0 -3.37735
-15.8802 0 5.36272
50.475 0 11.6692
-42.2969 0 96.0793
-6.42927 0 -10.5927
-8.0595 0 -16.0166
26.1762 0 53.6044
-14.0472 0 5.6813
22.4035 0 -11.4031
-56.8089 0 12.6681
43.217 0 38.7083
14.5456 0 -37.0047
-5.50804 0 -8.79958
5.6662 0 45.4285
-29.6392 0 -28.2644
-11.3592 0 -9.74669
-4.84384 0 12.6789
2.96454 0 2.0976
7.62055 0 3.8481
-75.6392 0 -15.1667
-10.7422 0 40.0698
-16.4102 0 -30.1116
5.62608 0 -0.462523
18.1257 0 3.76807
5.83576 0 -9.70234
-14.8947 0 -13.9493
-23.9237 0 -14.9526
-51.2783 0 -4.90869
51.8263 0 43.469
1.38435 0 1.98506
-9.23261 0 5.58228
12.499 0 19.6819
-5.82309 0 7.46117
10.2184 0 -13.6608
-16.6336 0 44.0624
29.5604 0 -17.0551
4.56877 0 24.8591
-0.38348 0 38.1252
25.7975 0 -32.5135
-15.6596 0 -1.34678
6.25645 0 -33.5627
-20.9713 0 36.2576
-0.65568 0 13.9888
10.3473 0 9.17568
-6.93993 0 3.87284
27.6258 0 78.4415
3.08947 0 -18.736
23.5335 0 -14.5286
30.7999 0 -2.86872
0.368886 0 -4.50145
3.50313 0 1.73112
-18.1148 0 11.9452
16.7032 0 -4.60472
18.8763 0 13.6293
-20.3739 0 -12.0373
-40.8203 0 15.5847
-10.0969 0 82.3533
44.6573 0 -0.493472
14.4366 0 -27.1187
47.7619 0 -12.7814
28.2998 0 15.4779
-56.9482 0 2.03767
34.7628 0 21.77
-22.5545 0 -17.2991
5.63921 0 7.57376
-44.4213 0 23.8277
14.7356 0 -2.67981
11.3218 0 -18.6511
-49.5507 0 -33.5984
-23.3405 0 58.6359
38.414 0 -51.756
8.16621 0 0.358402
14.2193 0 -4.69191
19.1647 0 -4.28871
12.3589 0 12.2555
-1.56261 0 5.17538
1.40248 0 -11.4938
-19.0953 0 -3.48755
-64.2753 0 -64.9647
-13.063 0 3.67884
59.4625 0 -18.1038
19.1696 0 3.63836
0.552361 0 11.3867
10.2758 0 9.91081
0.673926 0 -4.64936
-23.5864 0 -2.15883
21.847 0 17.877
9.42731 0 8.87726
23.4632 0 17.4399
35.5091 0 44.8718
-28.7035 0 -62.5494
-84.0734 0 -40.9322
12.6795 0 14.9236
-7.4198 0 12.1364
-25.6509 0 1.47525
5.23968 0 -0.318869
-18.9636 0 17.7282
-19.7923 0 6.83353
4.80359 0 12.2566
14.5127 0 14.1277
-10.2142 0 32.7901
-22.736 0 5.56524
-47.9047 0 -82.3966
5.42448 0 6.58734
-10.0963 0 -22.4177
7.47486 0 -3.04152
-78.4404 0 -0.35584
-0.426422 0 1.72562
16.2411 0 -5.17811
13.0934 0 -6.05047
1.93848 0 -13.0728
-19.4784 0 -20.0578
20.1344 0 22.5034
4.8779 0 1.07636
7.57018 0 -18.3786
0.906705 0 -6.0205
-49.054 0 42.8492
24.6809 0 -5.04687
-38.0126 0 3.38509
-31.2454 0 57.4041
21.4409 0 -14.179
14.8233 0 1.48354
-10.0363 0 -25.2999
-5.55114 0 1.95465
30.1167 0 4.66183
3.3686 0 -8.43139
62.0299 0 -29.7941
-3.58081 0 -38.9728
9.47503 0 20.6498
-19.589 0 -24.5461
-4.13052 0 7.78696
-11.0183 0 38.4607
10.545 0 22.2592
-1.53439 0 -15.3976
-25.658 0 -24.3943
19.5883 0 -12.5503
10.8163 0 -2.07962
42.1488 0 16.6612
52.9002 0 34.1261
21.2925 0 27.1587
-19.1074 0 1.47689
-12.4814 0 15.0058
1.55062 0 0.0892214
6.00006 0 -6.81713
-21.9129 0 -37.0112
80.5369 0 -45.2599
-22.8085 0 7.95123
14.3539 0 -25.8227
3.87567 0 -11.6178
-40.562 0 29.4968
31.206 0 -50.9471
-11.4415 0 -6.06136
-0.497378 0 -45.0752
6.90789 0 -0.749561
18.3177 0 -5.37828
8.18296 0 -14.6237
-10.9454 0 -13.2636
-32.9369 0 6.52836
12.6557 0 5.7576
-11.9787 0 -2.74532
-9.04811 0 1.93195
29.9059 0 -60.7334
-24.0132 0 15.0662
106.681 0 40.739
-17.1759 0 -0.125187
48.0517 0 0.297851
-22.4511 0 1.05103
20.0921 0 5.60588
-18.9091 0 -3.93496
-66.511 0 -55.0644
58.8213 0 -27.229
-8.80408 0 1.31259
-31.6767 0 2.31631
-9.44479 0 -1.37716
21.9207 0 14.5643
0.275069 0 25.0835
-43.743 0 -31.4019
22.5209 0 -39.022
-1.22935 0 1.90992
34.4509 0 -12.444
-16.8294 0 -3.00186
18.8713 0 14.0601
-12.2344 0 20.7514
-66.5176 0 -69.2412
78.9501 0 33.6399
-9.34435 0 -51.7777
24.7553 0 49.429
7.3425 0 -3.67122
13.5206 0 -14.6017
-1.08878 0 0.926746
7.66331 0 9.11377
1.99693 0 -21.5217
1.10558 0 -13.7159
-11.1232 0 -18.2893
-13.977 0 -12.4129
-3.58545 0 33.3011
29.1788 0 71.255
-29.9106 0 8.23473
12.1751 0 9.04787
15.2011 0 -0.409992
7.35337 0 9.13355
-28.5212 0 -27.0338
20.2963 0 -3.9626
3.34418 0 -7.35159
-16.4481 0 -7.24482
31.5357 0 30.6347
-1.61506 0 43.6201
-75.3836 0 -11.4834
-5.18006 0 11.7508
16.2904 0 0.102668
12.485 0 38.3351
-9.97052 0 24.0696
26.588 0 -34.5474
59.9051 0 19.3036
-3.14931 0 13.5748
-2.60993 0 20.6716
33.8354 0 -21.6955
17.0946 0 -11.2361
5.88432 0 -52.3243
18.8569 0 -10.805
45.3999 0 -8.36702
-95.4941 0 49.2197
10.0708 0 3.77167
-2.43296 0 -2.47968
-11.8677 0 32.5096
-5.05765 0 -3.79242
7.20436 0 6.04244
-65.2091 0 21.9852
65.6278 0 44.8448
-24.0831 0 -6.46515
-23.3305 0 -21.6342
14.0648 0 -26.8378
26.677 0 21.0775
-16.4482 0 81.3131
5.25982 0 -64.8379
47.2648 0 -26.1332
37.6457 0 49.091
6.84033 0 -7.97482
-37.0477 0 9.68247
-45.9926 0 -11.7777
-15.3304 0 12.5926
-38.2368 0 -64.4719
56.8243 0 51.5978
5.54755 0 15.3459
-79.4016 0 -85.5688
28.4195 0 -43.5755
3.98671 0 5.25943
-32.8774 0 70.8634
17.1098 0 3.38822
8.16753 0 51.5148
-54.507 0 -34.8056
-7.1347 0 -21.509
18.2642 0 10.2762
13.8713 0 31.6455
-10.8512 0 -24.9147
-22.5426 0 16.5506
-44.8814 0 -67.8008
-74.3295 0 -12.6734
27.1186 0 -32.7529
-9.69457 0 11.7814
7.5501 0 -2.53111
-11.5477 0 -29.112
7.34644 0 1.84203
-5.87873 0 -3.28845
7.38966 0 38.1309
-2.08253 0 28.1573
0.995124 0 -12.7778
13.3511 0 9.01637
-8.61975 0 -8.77199
9.69696 0 11.0316
-44.155 0 49.7682
11.6346 0 11.8769
18.6651 0 17.8928
-94.8947 0 24.3705
-4.46765 0 -18.8523
-15.3916 0 21.5467
14.0604 0 15.3483
4.85394 0 -18.9872
-1.30357 0 23.915
-21.9656 0 25.949
5.7048 0 -2.65894
11.9776 0 -8.83049
7.62355 0 -2.13234
-5.75244 0 -7.58744
3.99387 0 -1.76139
0.246215 0 -4.84157
6.84013 0 15.5688
-8.60149 0 -2.30153
9.22043 0 -0.0896002
21.3455 0 6.08077
-64.4552 0 -7.78421
1.05685 0 -1.01905
53.0624 0 -18.7283
-90.9836 0 -39.9946
52.3807 0 -27.8367
-33.2857 0 34.3499
2.89198 0 10.5849
0.309127 0 3.06847
1.83499 0 -20.8852
53.2279 0 -50.3819
43.3841 0 3.16967
14.7926 0 -6.55263
-9.14571 0 10.016
4.73884 0 -9.56889
46.3765 0 -41.9102
-22.6077 0 33.6568
13.3786 0 9.76621
11.6194 0 -13.8253
-8.48039 0 50.2406
9.9067 0 0.901637
15.1444 0 22.0378
24.0928 0 26.6432
-11.6326 0 10.7326
9.46356 0 -4.50475
-8.46186 0 -2.12944
3.50883 0 39.2501
5.0498 0 -0.606784
-11.3647 0 4.79994
-14.2407 0 -3.36208
-0.666658 0 -30.5174
-50.2945 0 -52.056
-33.0261 0 54.1448
-5.60137 0 -0.811204
-21.3624 0 23.863
-11.5012 0 1.89564
-1.52797 0 -13.5313
4.12665 0 -0.25645
2.24246 0 71.6287
11.8174 0 -64.1486
-5.06473 0 -11.6813
-7.24196 0 -18.7688
20.521 0 -4.03978
5.62774 0 4.07457
8.98832 0 -10.9829
-15.9147 0 13.6386
-2.38996 0 -27.7026
-35.4671 0 5.49485
0.942897 0 9.85066
-61.9003 0 -24.0258
16.2233 0 3.29119
-7.69442 0 32.0329
16.1007 0 -98.7974
-1.74108 0 2.07769
-20.234 0 -11.1816
11.723 0 13.8933
48.0267 0 -66.1179
-10.1058 0 -3.69662
23.7571 0 -10.1586
12.7368 0 25.9628
-9.98291 0 -10.8681
30.1718 0 19.288
-60.8287 0 5.90289
19.8307 0 -8.89056
-12.9321 0 -104.67
23.2929 0 91.7235
50.3016 0 48.6111
-96.2397 0 112.51
-15.8494 0 -6.1682
9.26808 0 -32.9566
41.0315 0 -34.2952
-13.2688 0 11.1294
26.1526 0 -3.67979
14.1383 0 6.30051
6.74988 0 -6.10004
-9.896 0 10.0335
-24.5448 0 48.4891
-12.874 0 -15.5363
54.4087 0 16.3096
3.17307 0 1.50822
-12.1093 0 -40.8864
-6.8506 0 5.46796
-14.7094 0 -19.0691
20.7775 0 8.24387
-17.0934 0 -4.19827
1.37415 0 8.06456
16.7861 0 40.3969
-10.5747 0 -43.7151
4.80498 0 2.1203
33.0863 0 4.46744
-14.6603 0 7.58791
14.3364 0 -35.9774
17.0135 0 46.8185
52.7483 0 -6.98725
20.9133 0 -20.0178
9.21272 0 6.71644
24.2219 0 12.5686
55.4269 0 78.6245
-43.3147 0 -84.0467
-2.34382 0 0.4786
-32.183 0 -15.6536
-18.3286 0 -34.4476
-7.12692 0 13.0323
3.25155 0 -4.14999
-5.3642 0 -46.645
65.5156 0 -16.9755
-26.5159 0 -6.7065
5.39859 0 -2.99411
-16.233 0 4.67051
9.79337 0 -36.9702
3.05747 0 -23.6604
-21.984 0 95.069
-18.1951 0 -16.7006
3.51081 0 -11.449
-3.15656 0 -84.0576
4.15367 0 6.48752
95.823 0 -18.8623
24.2739 0 -22.3371
-54.7314 0 -13.4334
42.7706 0 9.95301
1.98314 0 -4.67788
-4.61637 0 3.56564
9.93288 0 -36.3254
23.4886 0 -19.3877
6.95386 0 -25.0886
-8.95547 0 -13.9441
8.90181 0 -8.31726
-16.2727 0 -10.8575
1.75142 0 14.669
-15.0296 0 38.1723
34.0804 0 -45.3366
-22.9894 0 -14.8655
4.26239 0 24.3722
4.39878 0 15.756
-16.189 0 0.655068
4.06031 0 4.21579
-59.527 0 -25.5067
-46.7904 0 -6.78525
-12.9433 0 4.4493
-1.17972 0 1.71623
-5.52186 0 -14.0493
1.37755 0 2.84008
-14.3919 0 -9.85821
16.1344 0 22.0293
2.22809 0 2.5218
12.5352 0 -0.371502
-17.7833 0 -18.7739
9.50037 0 -0.0268894
-26.7146 0 -1.50964
-26.9724 0 -8.10014
7.80236 0 17.1223
8.56388 0 -10.3352
-48.5152 0 30.0261
11.1587 0 54.9498
68.9057 0 -30.575
-8.91288 0 7.0898
-1.65605 0 12.282
-2.28394 0 -20.2817
-16.4995 0 8.30937
12.5846 0 17.807
-2.20732 0 -3.82988
-16.3032 0 -1.63457
-3.56006 0 -14.6897
6.01747 0 54.9668
16.3581 0 -12.9303
29.6117 0 12.0673
16.3377 0 4.24489
7.27219 0 -17.8905
30.1268 0 -33.1777
-8.6885 0 20.5725
6.13023 0 4.5869
-14.2463 0 -58.8223
-17.091 0 -15.4632
13.6304 0 69.0909
-69.1593 0 70.7742
-26.7862 0 -39.0391
-49.5229 0 62.0997
-9.07757 0 -12.7255
16.3529 0 -4.36175
14.1705 0 16.5782
-28.5929 0 -3.48138
-16.2928 0 -58.0909
-38.7474 0 57.7786
11.8259 0 39.9444
-13.7009 0 12.3744
3.19833 0 -22.5382
-19.7785 0 -1.47257
12.1218 0 -12.102
-31.1293 0 2.02688
-38.368 0 -2.0907
4.75812 0 1.22643
-8.63783 0 2.30059
-40.0167 0 -14.5753
-17.7715 0 -2.68307
26.3994 0 -23.9352
-20.2238 0 -51.6332
25.7449 0 6.36933
44.3506 0 23.1681
-14.3941 0 6.67818
17.5752 0 31.8708
17.224 0 -15.7501
33.4163 0 14.8968
-34.0771 0 -61.7243
-8.83281 0 8.94069
5.30091 0 -20.4689
6.18716 0 -9.33764
-0.916654 0 28.3313
22.92 0 -115.725
43.3484 0 16.7834
1.49026 0 20.238
9.78802 0 28.9416
41.4319 0 55.4551
0.264724 0 10.3408
4.44939 0 7.94016
11.1843 0 -4.0406
3.25571 0 -20.2192
7.00352 0 -1.42482
24.5352 0 -4.83255
-1.37968 0 17.2264
-15.4587 0 -31.3926
9.3195 0 -0.865054
9.97357 0 3.70618
1.81471 0 0.29698
-62.7329 0 26.285
9.65428 0 -19.9707
-9.912 0 -9.18693
-11.8111 0 -41.5509
-10.2909 0 21.7178
25.4405 0 23.1352
-4.68263 0 1.36764
2.97515 0 17.6009
2.37927 0 -8.87598
8.09407 0 -9.99148
-26.1454 0 36.8273
33.5574 0 -8.25593
8.80706 0 12.0572
-34.9353 0 26.45
-0.221635 0 21.4032
8.28218 0 -6.67682
0.609934 0 -0.97996
15.8899 0 9.8424
26.9741 0 -0.566569
-9.41907 0 2.09864
-5.21257 0 9.12229
-6.47929 0 -33.9715
-1.2107 0 17.7895
48.0457 0 -43.035
13.2744 0 20.095
14.9957 0 -6.9583
-44.0779 0 2.72704
36.1274 0 24.9898
-7.74639 0 0.171281
-0.877197 0 4.92837
20.3726 0 4.2467
-8.0797 0 19.8396
4.80054 0 2.15719
25.3411 0 55.6951
-2.61575 0 -5.80797
20.0843 0 -32.2599
20.8812 0 -1.20443
-50.209 0 -41.901
2.58551 0 0.61535
3.54397 0 57.9771
10.8951 0 -11.9333
-10.2814 0 -6.54533
15.673 0 22.317
-30.7665 0 90.1516
-80.9692 0 26.7009
37.4734 0 -27.3106
-42.2742 0 0.0938962
44.8222 0 -12.9361
-2.33563 0 2.53608
-55.4638 0 -70.867
27.0251 0 -0.990218
19.8605 0 9.82186
-18.1005 0 12.1944
2.449 0 5.96211
-12.3443 0 -4.90303
-18.108 0 1.37119
-2.60186 0 3.86463
-6.64736 0 6.34231
-16.444 0 -20.2014
4.13805 0 19.6569
-5.65279 0 15.6005
23.1706 0 6.68108
11.603 0 28.4266
-23.5934 0 22.7547
-33.9892 0 -24.8039
-8.03602 0 1.44452
-1.40325 0 -0.712439
13.3461 0 15.2311
-42.8009 0 -42.3957
2.6868 0 -4.19834
60.7134 0 114.953
13.4108 0 -10.2275
-103.345 0 -47.1846
32.0693 0 84.6592
-0.253072 0 -14.3316
-0.469116 0 -14.6782
-10.1867 0 -13.5816
-22.0927 0 56.7974
11.2638 0 47.0588
38.1894 0 13.4693
-38.0325 0 58.7235
0.224205 0 1.21206
-1.38619 0 17.1132
9.6331 0 -69.8595
-21.8049 0 5.93679
5.05833 0 -9.19116
11.5732 0 3.42334
54.6777 0 -0.176899
-28.2759 0 -3.26536
12.5429 0 11.8416
-26.0095 0 32.2952
-41.8252 0 -30.5608
-28.3288 0 -51.0411
-3.61277 0 -9.85857
-5.77944 0 -51.4838
-71.4041 0 71.2835
36.6386 0 -28.7127
38.5076 0 2.17942
-2.90229 0 15.6818
-8.35774 0 -3.88928
-0.457017 0 0.243558
1.15142 0 0.769362
-45.5551 0 -8.17661
-49.8726 0 -2.96958
31.1806 0 -27.5991
-98.6776 0 -10.0621
97.7673 0 -0.460787
-2.5315 0 12.9762
-80.1859 0 43.0671
-2.44228 0 -1.23859
-1.0153 0 -8.36457
6.6256 0 8.46976
-46.6121 0 8.61926
48.1124 0 -11.4379
-28.8409 0 -24.8458
-8.8468 0 5.41681
-1.54855 0 8.57813
6.65685 0 -18.1699
9.43103 0 33.4537
2.6522 0 -11.3103
-6.79025 0 -8.34662
-13.243 0 6.31183
-40.9441 0 -18.8493
52.3609 0 31.2303
7.16339 0 2.33538
5.17101 0 -7.88763
40.6616 0 14.6063
-5.80391 0 1.10012
-4.99079 0 1.19969
-2.72191 0 -19.275
84.7635 0 31.5268
-19.7931 0 -14.7278
-8.53708 0 -0.601015
31.4799 0 31.1176
1.18373 0 -15.2784
10.2323 0 17.0717
-40.7605 0 2.08774
2.71469 0 -13.3557
44.821 0 -20.3871
47.8611 0 17.359
15.0624 0 5.50655
-43.3931 0 -4.81949