# vtk DataFile Version 3.0
SiWiRVisFile
ASCII
DATASET UNSTRUCTURED_GRID
POINTS 1600 DOUBLE
76.383 100 72.6269
76.1174 100 73.7262
77.27 100 74.0267
79.3375 100 73.7968
80.4415 100 74.2197
81.5154 100 74.5179
83.2959 100 74.1038
84.3692 100 74.6531
85.5297 100 75.0565
84.4204 100 73.4589
91.9019 100 71.4375
91.207 100 70.4649
90.9961 100 72.2234
90.1522 100 70.4364
87.2136 100 69.5794
90.3465 100 61.7047
91.517 100 61.4916
93.1592 100 60.0119
89.9593 100 55.6671
95.3095 100 58.7943
104.386 100 41.7312
106.241 100 41.6399
106.176 100 40.483
107.232 100 41.109
105.042 100 39.9882
110.984 100 41.3533
110.526 100 35.0423
111.536 100 33.774
110.876 100 36.3301
111.735 100 35.5297
112.882 100 35.6147
114.03 100 35.9598
112.72 100 34.3135
113.687 100 34.7643
113.875 100 41.5898
119.462 100 40.015
117.26 100 41.0933
118.306 100 40.4744
118.239 100 41.645
120.11 100 41.7228
129.314 100 58.5114
134.533 100 55.6671
131.086 100 60.0263
132.972 100 62.4271
133.946 100 61.8548
136.008 100 70.0779
134.94 100 69.6299
134.161 100 72.2147
133.529 100 70.3337
133.317 100 71.6053
140.25 100 73.5116
138.626 100 75.1017
140.027 100 74.683
141.135 100 74.325
142.975 100 74.7311
143.988 100 74.2527
144.971 100 73.7409
147.241 100 73.9852
148.374 100 73.6489
148.117 100 72.5246
75.1217 100 74.422
76.3805 100 74.8169
78.435 100 74.4838
79.492 100 74.845
80.4345 100 75.3406
82.5321 100 75.0188
83.5633 100 75.4536
84.6074 100 75.8068
85.6122 100 76.1406
86.8473 100 76.2125
87.8801 100 75.8989
91.7653 100 69.4002
89.9528 100 71.5607
91.1253 100 67.0706
92.5435 100 63.808
90.6769 100 69.3317
92.6651 100 61.1373
94.3773 100 60.1304
95.5496 100 59.9519
97.9254 100 59.715
105.287 100 41.1301
97.6477 100 47.7153
106.393 100 49.8728
110.629 100 38.949
108.215 100 40.6971
109.54 100 41.2089
109.855 100 40.1978
109.484 100 39.1376
107.669 100 33.5235
111.945 100 36.9769
113.059 100 36.7221
116.97 100 33.5611
114.287 100 38.287
114.951 100 40.1246
114.791 100 41.1737
115.792 100 40.9646
113.799 100 39.378
118.267 100 49.3269
126.845 100 47.7153
119.19 100 41.1382
126.308 100 59.369
128.351 100 60.1946
129.857 100 59.4673
132.374 100 60.9901
133.015 100 69.117
132.277 100 63.2948
133.09 100 66.8506
134.326 100 71.093
132.195 100 69.9144
136.839 100 76.3141
137.963 100 76.0476
139.082 100 76.4223
139.937 100 75.8401
140.927 100 75.4202
141.982 100 75.0942
143.915 100 75.3609
144.946 100 74.9138
146.095 100 74.4423
148.172 100 74.7089
149.27 100 74.4035
75.4948 100 75.459
76.4848 100 75.8979
77.4169 100 75.1304
78.4397 100 75.5782
79.5921 100 76.0572
81.4597 100 75.6973
82.6748 100 76.1389
83.764 100 76.5494
84.9323 100 77.002
85.9524 100 77.2217
86.9982 100 77.3809
87.6846 100 78.2857
89.416 100 76.5576
91.3676 100 68.378
92.1725 100 65.8648
93.1825 100 65.0453
92.7317 100 62.4616
93.7053 100 61.7783
94.8651 100 61.1638
97.2243 100 58.8988
98.2901 100 58.6031
104.403 100 51.1266
105.507 100 50.5083
106.424 100 51.0985
101.975 100 47.7042
107.528 100 50.0609
106.914 100 48.9899
105.293 100 49.3051
110.465 100 37.4732
111.425 100 37.9896
113.22 100 37.9505
114.048 100 37.0665
120.259 100 48.3418
117.195 100 49.1023
117.493 100 50.3552
121.17 100 49.1166
117.653 100 51.4895
118.689 100 51.0969
120.262 100 51.8226
125.765 100 58.5132
127.758 100 59.1494
130.17 100 60.9266
131.1 100 61.4877
131.482 100 62.5949
132.291 100 64.7532
131.93 100 66.2648
133.115 100 68.0013
134.375 100 76.9988
136.529 100 77.4843
137.635 100 77.1208
138.661 100 77.355
139.696 100 77.3406
140.684 100 76.7389
141.694 100 76.3737
142.901 100 75.8961
144.859 100 75.9688
145.992 100 75.4861
147.081 100 75.1661
148.005 100 75.844
149.005 100 75.4523
75.501 100 76.5667
76.7256 100 76.9949
77.5927 100 76.2109
78.6935 100 76.7084
80.6389 100 76.451
81.7264 100 76.842
82.9566 100 77.372
83.9246 100 77.8751
85.2315 100 78.263
86.4973 100 78.2482
87.3861 100 79.3843
89.6874 100 77.736
88.1481 100 77.2174
92.6211 100 68.5734
92.1417 100 67.5367
93.521 100 66.2423
94.6155 100 63.9925
93.6385 100 63.7768
94.3776 100 62.7903
95.4821 100 62.1996
96.177 100 61.3827
98.9371 100 59.4499
104.509 100 49.9947
105.799 100 55.0538
105.235 100 51.8313
105.815 100 53.3092
108.635 100 52.3474
110.386 100 52.4054
108.041 100 49.0122
111.131 100 40.2916
113.475 100 40.4338
116.419 100 49.9428
115.403 100 51.0209
115.821 100 52.148
118.084 100 52.5725
119.134 100 52.0281
119.676 100 53.0855
119.78 100 50.5224
125.291 100 59.7928
128.052 100 61.2233
129.56 100 61.9414
130.373 100 62.6692
131.141 100 63.672
131.02 100 64.712
130.795 100 65.8609
131.976 100 67.4377
132.064 100 68.5605
135.501 100 76.3823
135.964 100 79.0095
137.179 100 78.6173
138.179 100 78.3653
139.431 100 78.3613
140.542 100 77.9648
141.544 100 77.4406
142.715 100 76.9126
143.902 100 76.5153
145.842 100 76.5805
146.867 100 76.2026
147.778 100 76.9156
148.969 100 76.561
75.4532 100 77.7109
76.6542 100 78.0362
77.7431 100 77.276
79.7234 100 77.1103
80.8563 100 77.5165
81.9584 100 77.8226
82.9072 100 78.5727
84.0329 100 79.1631
85.1914 100 79.484
86.2822 100 79.4065
87.168 100 80.5234
89.8939 100 78.8901
90.9804 100 76.6452
94.6678 100 66.3134
93.271 100 67.3908
95.3615 100 64.7451
96.3334 100 64.1236
95.4771 100 63.3579
96.4715 100 62.5904
97.2938 100 61.5578
97.027 100 60.3462
102.82 100 58.82
105.16 100 54.1151
107.217 100 53.1303
107.299 100 52.0544
108.264 100 53.381
109.34 100 53.3914
110.403 100 53.7106
108.006 100 51.2233
111.445 100 42.3097
112.855 100 42.3784
116.509 100 51.1494
114.103 100 53.8472
114.946 100 52.6962
116.226 100 53.2396
117.055 100 52.4447
117.298 100 53.5124
117.746 100 54.5396
121.306 100 58.3597
127.086 100 60.118
126.895 100 61.3083
127.581 100 62.2804
129.261 100 63.1451
130.04 100 63.8563
128.783 100 64.678
130.904 100 68.2621
130.165 100 66.6536
135.35 100 77.9439
134.876 100 79.0538
137.498 100 80.6794
137.797 100 79.5576
138.791 100 79.1975
140.361 100 79.1488
141.695 100 78.5911
142.629 100 78.0205
143.686 100 77.5818
144.886 100 77.0464
146.753 100 77.2407
147.892 100 78.0165
149.074 100 77.676
75.8476 100 78.8029
76.9656 100 79.1261
77.7549 100 78.3575
78.7346 100 77.8505
79.844 100 78.2466
80.8818 100 78.5478
81.8464 100 78.9489
82.5695 100 79.7339
83.5644 100 80.1391
84.6605 100 80.4165
85.7565 100 80.3982
88.5755 100 79.0687
90.5588 100 79.8849
88.9763 100 75.5383
91.2498 100 75.3856
94.359 100 65.187
96.5169 100 65.2275
97.5152 100 64.5266
97.1684 100 63.4196
97.8398 100 62.6413
98.2061 100 60.7385
101.02 100 60.0833
103.756 100 56.9769
104.965 100 56.7522
106.564 100 54.2107
107.645 100 54.4038
108.315 100 55.3099
108.822 100 54.3284
111.577 100 53.4852
111.339 100 51.7833
114.457 100 51.6472
112.975 100 54.2501
115.244 100 53.9922
115.65 100 55.0451
116.643 100 54.3754
119.047 100 54.1058
119.31 100 55.2475
121.121 100 57.2461
123.427 100 60.4259
126.065 100 60.5283
126.476 100 62.474
128.219 100 63.7596
127.736 100 64.8504
128.017 100 65.9063
129.822 100 65.3021
133.475 100 74.761
134.942 100 74.2727
134.11 100 79.9396
136.814 100 79.7675
138.52 100 80.3163
139.669 100 80.1163
140.836 100 80.2283
141.865 100 79.7693
142.776 100 79.0757
143.675 100 78.6118
144.677 100 78.1808
145.836 100 77.7384
146.846 100 78.4084
147.712 100 79.1029
148.679 100 78.7543
74.8825 100 79.348
75.7847 100 79.8867
77.9539 100 79.3908
78.9315 100 78.9853
80.0292 100 79.3385
79.7835 100 81.8907
81.6584 100 80.4595
82.7004 100 81.014
83.8689 100 81.2169
85.0826 100 81.4645
86.2169 100 81.6576
89.4163 100 80.1508
91.1644 100 81.1311
90.0881 100 75.6848
95.3663 100 67.2032
95.6621 100 65.8226
96.6375 100 66.4901
98.7342 100 64.9855
98.1831 100 63.7237
98.6287 100 61.8197
99.6846 100 60.32
101.999 100 59.5889
103.889 100 58.2564
107.091 100 55.3464
108.722 100 56.4592
109.712 100 54.9681
109.032 100 58.8706
110.781 100 54.7653
107.924 100 59.4044
109.258 100 59.996
115.503 100 59.628
116.067 100 58.5743
114.536 100 54.8752
114.969 100 58.559
114.861 100 55.8028
115.937 100 56.0856
117.017 100 55.4038
120.24 100 58.3784
121.897 100 59.2818
124.886 100 60.7483
125.497 100 61.8597
127.152 100 63.3785
126.149 100 64.2753
127.212 100 66.6562
129.126 100 66.275
129.268 100 67.316
134.654 100 75.6451
131.435 100 81.8769
135.521 100 80.007
138.346 100 81.7189
139.34 100 81.1813
140.402 100 81.1829
141.904 100 80.8422
142.91 100 80.2515
144.659 100 80.7253
144.536 100 79.3167
145.853 100 79.0561
146.73 100 79.5984
148.706 100 79.8747
149.572 100 79.2349
74.8982 100 80.5335
75.8659 100 81.0017
76.8267 100 80.2104
77.7733 100 80.7659
78.6823 100 80.1768
78.6267 100 81.3847
80.7463 100 81.1658
81.7394 100 81.6728
82.9539 100 82.1492
84.3104 100 82.4357
85.4937 100 82.4878
86.8857 100 82.6343
88.2575 100 80.2397
87.7807 100 81.3817
88.0165 100 82.6563
91.6397 100 80.1021
96.6173 100 67.9605
97.4485 100 65.7142
100.546 100 64.2598
99.4773 100 64.0695
99.0638 100 62.7166
99.6447 100 61.578
104.311 100 59.3857
106.403 100 56.2306
107.596 100 56.2536
108.919 100 57.6721
107.819 100 57.3961
105.794 100 60.076
107.071 100 60.4839
109.49 100 61.9409
115.257 100 60.7134
118.553 100 60.192
119.41 100 60.9715
116.323 100 57.3244
115.297 100 57.4153
117.045 100 56.5602
118.301 100 55.643
120.768 100 59.3237
124.214 100 61.7361
125.76 100 63.3421
125.02 100 64.0898
125.315 100 65.088
126.872 100 65.636
128.235 100 66.9794
132.256 100 80.9045
136.208 100 82.1122
137.212 100 81.7006
136.375 100 80.8087
137.221 100 82.8828
138.396 100 82.7285
139.514 100 82.2474
141.683 100 82.1093
142.77 100 81.7885
143.675 100 81.0888
145.69 100 81.381
145.757 100 80.1827
146.794 100 80.858
147.63 100 80.2059
148.749 100 81.1467
149.655 100 80.4538
74.7401 100 81.6121
75.7609 100 82.173
76.8762 100 81.4665
77.7238 100 82.0516
78.6141 100 83.8092
77.5842 100 84.619
78.6194 100 82.4621
80.78 100 82.2695
81.7115 100 82.7384
80.8783 100 83.4529
82.6907 100 83.2342
84.921 100 83.3626
86.0268 100 83.4418
87.2001 100 83.8829
88.9709 100 83.3086
91.0399 100 78.9272
97.496 100 68.6823
97.7242 100 67.6529
99.9365 100 65.1126
100.727 100 66.1588
100.502 100 62.0542
[...]
POINT_DATA 1600
SCALARS mass double
LOOKUP_TABLE default
1
1
1
1
1
1
1
1
1
1
1
1
1
1
1
1
1
1
1
1
1
1
1
1
1
1
1
1
1
1
1
1
1
1
1
1
1
1
1
1
1
1
1
1
1
1
1
1
1
1
1
1
1
1
1
1
1
1
1
1
1
1
1
1
1
1
1
1
1
1
1
1
1
1
1
1
1
1
1
1
1
1
1
1
1
1
1
1
1
1
1
1
1
1
1
1
1
1
1
1
1
1
1
1
1
1
1
1
1
1
1
1
1
1
1
1
1
1
1
1
1
1
1
1
1
1
1
1
1
1
1
1
1
1
1
1
1
1
1
1
1
1
1
1
1
1
1
1
1
1
1
1
1
1
1
1
1
1
1
1
1
1
1
1
1
1
1
1
1
1
1
1
1
1
1
1
1
1
1
1
1
1
1
1
1
1
1
1
1
1
1
1
1
1
1
1
1
1
1
1
1
1
1
1
1
1
1
1
1
1
1
1
1
1
1
1
1
1
1
1
1
1
1
1
1
1
1
1
1
1
1
1
1
1
1
1
1
1
1
1
1
1
1
1
1
1
1
1
1
1
1
1
1
1
1
1
1
1
1
1
1
1
1
1
1
1
1
1
1
1
1
1
1
1
1
1
1
1
1
1
1
1
1
1
1
1
1
1
1
1
1
1
1
1
1
1
1
1
1
1
1
1
1
1
1
1
1
1
1
1
1
1
1
1
1
1
1
1
1
1
1
1
1
1
1
1
1
1
1
1
1
1
1
1
1
1
1
1
1
1
1
1
1
1
1
1
1
1
1
1
1
1
1
1
1
1
1
1
1
1
1
1
1
1
1
1
1
1
1
1
1
1
1
1
1
1
1
1
1
1
1
1
1
1
1
1
1
1
1
1
1
1
1
1
1
1
1
1
1
1
1
1
1
1
1
1
1
1
1
1
1
1
1
1
1
1
1
1
1
1
1
1
1
1
1
1
1
1
1
1
1
1
1
1
1
1
1
1
1
1
1
1
1
1
1
1
1
1
1
1
1
1
1
1
1
1
1
1
1
1
1
1
1
1
1
1
1
1
1
1
1
1
1
1
1
1
1
1
1
1
1
1
1
1
1
1
1
1
1
1
1
1
1
1
1
1
1
1
1
1
1
1
1
1
1
1
1
1
1
1
1
1
1
1
1
1
1
1
1
1
1
1
1
1
1
1
1
1
1
1
1
1
1
1
1
1
1
1
1
1
1
1
1
1
1
1
1
1
1
1
1
1
1
1
1
1
1
1
1
1
1
1
1
1
1
1
1
1
1
1
1
1
1
1
1
1
1
1
1
1
1
1
1
1
1
1
1
1
1
1
1
1
1
1
1
1
1
1
1
1
1
1
1
1
1
1
1
1
1
1
1
1
1
1
1
1
1
1
1
1
1
1
1
1
1
1
1
1
1
1
1
1
1
1
1
1
1
1
1
1
1
1
1
1
1
1
1
1
1
1
1
1
1
1
1
1
1
1
1
1
1
1
1
1
1
1
1
1
1
1
1
1
1
1
1
1
1
1
1
1
1
1
1
1
1
1
1
1
1
1
1
1
1
1
1
1
1
1
1
1
1
1
1
1
1
1
1
1
1
1
1
1
1
1
1
1
1
1
1
1
1
1
1
1
1
1
1
1
1
1
1
1
1
1
1
1
1
1
1
1
1
1
1
1
1
1
1
1
1
1
1
1
1
1
1
1
1
1
1
1
1
1
1
1
1
1
1
1
1
1
1
1
1
1
1
1
1
1
1
1
1
1
1
1
1
1
1
1
1
1
1
1
1
1
1
1
1
1
1
1
1
1
1
1
1
1
1
1
1
1
1
1
1
1
1
1
1
1
1
1
1
1
1
1
1
1
1
1
1
1
1
1
1
1
1
1
1
1
1
1
1
1
1
1
1
1
1
1
1
1
1
1
1
1
1
1
1
1
1
1
1
1
1
1
1
1
1
1
1
1
1
1
1
1
1
1
1
1
1
1
1
1
1
1
1
1
1
1
1
1
1
1
1
1
1
1
1
1
1
1
1
1
1
1
1
1
1
1
1
1
1
1
1
1
1
1
1
1
1
1
1
1
1
1
1
1
1
1
1
1
1
1
1
1
1
1
1
1
1
1
1
1
1
1
1
1
1
1
1
1
1
1
1
1
1
1
1
1
1
1
1
1
1
1
1
1
1
1
1
1
1
1
1
1
1
1
1
1
1
1
1
1
1
1
1
1
1
1
1
1
1
1
1
1
1
1
1
1
1
1
1
1
1
1
1
1
1
1
1
1
1
1
1
1
1
1
1
1
1
1
1
1
1
1
1
1
1
1
1
1
1
1
1
1
1
1
1
1
1
1
1
1
1
1
1
1
1
1
1
1
1
1
1
1
1
1
1
1
1
1
1
1
1
1
1
1
1
1
1
1
1
1
1
1
1
1
1
1
1
1
1
1
1
1
1
1
1
1
1
1
1
1
1
1
1
1
1
1
1
1
1
1
1
1
1
1
1
1
1
1
1
1
1
1
1
1
1
1
1
1
1
1
1
1
1
1
1
1
1
1
1
1
1
1
1
1
1
1
1
1
1
1
1
1
1
1
1
1
1
1
1
1
1
1
1
1
1
1
1
1
1
1
1
1
1
1
1
1
1
1
1
1
1
1
1
1
1
1
1
1
1
1
1
1
1
1
1
1
1
1
1
1
1
1
1
1
1
1
1
1
1
1
1
1
1
1
1
1
1
1
1
1
1
1
1
1
1
1
1
1
1
1
1
1
1
1
1
1
1
1
1
1
1
1
1
1
1
1
1
1
1
1
1
1
1
1
1
1
1
1
1
1
1
1
1
1
1
1
1
1
1
1
1
1
1
1
1
1
1
1
1
1
1
1
1
1
1
1
1
1
1
1
1
1
1
1
1
1
1
1
1
1
1
1
1
1
1
1
1
1
1
1
1
1
1
1
1
1
1
1
1
1
1
1
1
1
1
1
1
1
1
1
1
1
1
1
1
1
1
1
1
1
1
1
1
1
1
1
1
1
1
1
1
1
1
1
1
1
1
1
1
1
1
1
1
1
1
1
1
1
1
1
1
1
1
1
1
1
1
1
1
1
1
1
1
1
1
1
1
1
1
1
1
1
1
1
1
1
1
1
1
1
1
1
1
1
1
1
1
1
1
1
1
1
1
1
1
1
1
1
1
1
1
1
1
1
1
1
1
1
1
1
1
1
1
1
1
1
1
1
1
1
1
1
1
1
1
1
1
1
1
1
1
1
1
1
1
1
1
1
1
1
1
1
1
1
1
1
1
1
1
1
1
1
1
1
1
1
1
1
1
1
1
1
1
1
1
1
1
1
1
1
1
1
1
1
1
1
1
1
1
1
1
1
1
1
1
1
1
1
1
1
1
1
1
1
1
1
1
1
1
1
1
1
1
1
1
1
1
1
1
1
1
1
1
1
1
1
1
1
1
1
1
1
1
1
1
1
1
1
1
1
1
1
1
1
1
1
1
1
1
1
1
1
1
1
1
1
1
1
1
1
1
1
1
1
1
1
1
1
1
1
1
1
1
1
1
1
1
1
1
1
1
1
1
1
1
1
1
1
1
1
1
1
1
1
1
1
1
1
VECTORS force double
0.889567 0 5.71805
1.80205 0 9.94502
-8.39233 0 5.65432
1.82729 0 -24.8072
-14.5231 0 0.437745
-2.17268 0 19.0713
13.4314 0 18.4123
-0.0286569 0 2.2449
-20.6717 0 -9.25639
-9.98222 0 18.24
-16.5986 0 -2.92846
41.0196 0 -7.76703
-1.94163 0 -16.5631
-30.3693 0 -6.6644
0 0 0
10.5768 0 -1.94248
4.78583 0 1.2815
8.12735 0 14.3185
0 0 0
1.22895 0 13.2617
-11.2264 0 7.37215
13.9057 0 -0.326292
6.69888 0 4.21013
-37.4402 0 4.94133
12.9014 0 15.2868
-25.8873 0 -8.27697
15.9591 0 11.6349
8.63031 0 9.96314
12.072 0 2.90892
-5.19461 0 5.23899
7.23662 0 -10.9583
-24.4446 0 -12.0765
-35.6386 0 -0.676124
20.2122 0 30.3622
-109.227 0 38.3284
-12.8641 0 13.5167
5.18185 0 -6.30389
-3.42558 0 7.48771
-15.4819 0 -0.563017
8.25165 0 4.87657
-7.00919 0 -4.82127
0 0 0
-14.4398 0 12.9738
-4.63118 0 -7.26952
-3.7496 0 0.417712
-7.91542 0 -2.31585
0.296298 0 8.23361
42.1268 0 26.8409
-15.4858 0 -7.9048
-38.175 0 -43.3078
6.42554 0 19.5714
10.2174 0 15.5529
9.6129 0 3.5624
-10.8942 0 -1.77076
33.953 0 -0.224636
3.59934 0 5.49744
12.7286 0 14.873
6.01301 0 18.2312
-1.12842 0 -14.0095
0.379179 0 9.65782
19.0327 0 -9.35681
-9.21407 0 -33.6737
-19.5493 0 -8.53026
-24.1252 0 38.474
21.9196 0 2.68249
-5.28619 0 0.0704928
-4.90727 0 -14.5134
-17.5642 0 -11.7189
50.3906 0 22.245
-34.6673 0 23.3882
27.3021 0 5.9032
17.2919 0 12.0287
14.3622 0 -0.512554
4.29577 0 7.79252
-3.1438 0 -1.20023
-5.76765 0 12.641
5.92632 0 8.85796
1.3761 0 1.6507
-8.48714 0 4.84945
-28.9611 0 -14.324
-9.02054 0 -20.8246
0 0 0
-30.6164 0 62.9975
-1.09902 0 -1.60898
34.7702 0 -9.26059
-8.88519 0 28.7653
25.1329 0 -33.5925
8.59513 0 -0.393898
0 0 0
-7.13165 0 -9.26208
-38.3062 0 -10.2606
0 0 0
-5.982 0 -1.2565
-2.39951 0 -27.325
13.6695 0 -1.03257
72.2816 0 -22.1217
12.4554 0 -14.616
3.51547 0 14.1717
0 0 0
11.7411 0 -19.5672
46.7598 0 72.5099
-8.2936 0 -33.5283
11.0663 0 18.6182
-9.52532 0 8.05716
7.09612 0 16.7032
10.2759 0 34.4571
-21.2316 0 7.47598
4.99442 0 4.5901
11.1156 0 -10.8579
-3.52918 0 12.721
10.2881 0 5.49531
-33.4775 0 -48.0678
32.5594 0 -23.6829
12.8628 0 10.5218
-24.4448 0 26.902
-6.33498 0 12.9504
15.9084 0 -43.7911
4.80263 0 -38.8554
-19.9235 0 21.1353
-8.76609 0 -20.3265
-18.4571 0 0.850656
24.5128 0 22.1083
12.7872 0 -0.922134
51.3479 0 -3.61842
-17.6128 0 -46.7336
37.1626 0 0.646027
-9.02553 0 15.4335
1.21277 0 17.3513
-72.3664 0 -1.88558
15.9009 0 11.5009
99.8772 0 -104.962
-3.64246 0 0.979329
-3.91311 0 24.2078
4.41263 0 -12.3936
15.3294 0 1.54547
6.97163 0 2.61025
8.55269 0 -6.30025
-0.956107 0 3.03281
7.66381 0 7.3531
-19.7046 0 -6.01978
-14.5369 0 -14.0005
2.57792 0 -18.3681
-34.017 0 3.85469
17.5056 0 3.91721
0 0 0
-8.84475 0 -3.31422
40.3521 0 -50.2723
52.0922 0 -13.8213
-2.47594 0 -11.7254
6.57011 0 9.31596
2.28828 0 -18.9371
35.7759 0 39.1074
7.77999 0 7.64331
-10.6716 0 13.7426
-3.16933 0 -4.09794
-8.95788 0 -6.332
-10.9218 0 3.38059
-19.7077 0 -64.421
-14.4404 0 -0.327032
-51.2621 0 -66.688
-4.30444 0 18.6642
-11.5144 0 -10.3471
16.5806 0 15.7329
-20.544 0 -29.7468
-17.3554 0 -4.90052
-1.94792 0 5.79256
-20.7625 0 -6.70376
48.063 0 -36.5514
1.87966 0 0.226658
-40.8893 0 3.80984
-47.9968 0 83.043
47.0272 0 -63.4851
-38.4547 0 3.86159
34.6529 0 -47.3013
6.26597 0 -68.4804
19.6746 0 9.78925
-18.8463 0 38.3194
10.1535 0 -48.1385
-24.3027 0 -1.05965
14.6315 0 5.63491
21.5266 0 7.81852
-39.4452 0 -63.6531
-31.4453 0 18.3246
-15.871 0 -8.88123
1.26339 0 -9.33149
-10.0486 0 -118.432
-9.52259 0 -18.7092
16.7357 0 9.1609
5.72384 0 -5.13839
-61.6372 0 109.463
20.1949 0 3.483
-19.8078 0 -4.4302
-5.77602 0 -4.59232
-17.6036 0 -7.55395
4.30527 0 5.51872
-0.900872 0 -11.1086
69.2815 0 17.7651
-100.234 0 -26.3656
8.42741 0 8.88009
-58.9142 0 10.4093
14.9695 0 -18.3346
60.6799 0 20.6965
-34.156 0 36.3155
16.8829 0 5.02769
20.9912 0 -2.75553
48.4882 0 -38.65
-5.79585 0 -6.93617
-1.67566 0 17.0283
-6.26831 0 8.77881
-12.6074 0 -30.2746
12.2452 0 18.93
7.3892 0 15.1986
3.47581 0 10.0363
64.7291 0 -43.4742
58.3985 0 3.07018
24.4255 0 65.6529
-10.4414 0 -8.31678
-9.62493 0 15.152
0.225791 0 -73.6117
-19.4734 0 26.7333
-5.61505 0 -6.30248
3.90906 0 24.9084
12.5406 0 -57.0927
-12.098 0 51.0873
69.6271 0 -78.3152
12.1024 0 -2.67372
-6.11437 0 -3.80984
3.44932 0 13.2696
28.5897 0 -23.5098
-77.7385 0 17.9284
28.9434 0 -62.4585
13.0221 0 1.62063
34.5474 0 29.865
19.5912 0 31.8844
-7.84852 0 59.9133
-22.322 0 -17.8784
9.653 0 -0.663742
22.1558 0 -18.4602
26.2236 0 -6.44338
-23.1647 0 0.668901
21.0106 0 4.05491
2.73655 0 41.656
30.2497 0 23.3703
12.4604 0 48.2368
-19.5548 0 -40.5599
9.72626 0 117.492
7.71295 0 -6.54381
10.577 0 -22.8977
-21.9679 0 -51.8682
8.89241 0 -8.14561
-35.8135 0 -40.5767
2.63724 0 3.31408
-14.1292 0 -5.52586
-10.7426 0 -7.11688
-6.12587 0 -2.77622
48.195 0 12.7256
-8.76647 0 6.31329
24.3069 0 -21.8471
20.0984 0 -8.52463
11.6929 0 1.79834
-3.21248 0 20.6281
13.9818 0 -3.7983
-23.7324 0 45.6839
-27.9867 0 33.2926
-4.58706 0 -13.145
-15.8244 0 14.0812
26.9516 0 -32.0802
7.36891 0 -6.02009
3.93055 0 -10.3794
21.0799 0 27.6042
1.08297 0 -8.61045
18.3015 0 2.74514
1.21998 0 -3.1303
-47.7736 0 44.1986
-16.6323 0 2.3866
-77.3179 0 -23.9949
24.8586 0 -10.5234
16.0929 0 10.6539
23.7908 0 -15.2544
37.3791 0 18.8656
3.08515 0 5.75682
-4.32811 0 -2.96396
-25.2834 0 -31.8091
31.1414 0 29.6157
54.8458 0 20.6156
17.6836 0 -5.77685
-51.1315 0 67.0085
4.48484 0 6.31291
-19.5688 0 -1.01743
-1.73665 0 -28.9875
41.7145 0 -46.0441
54.8702 0 81.7246
-4.5487 0 -2.72921
-14.4535 0 10.0448
8.55418 0 -32.9001
0.26325 0 -56.2203
-28.4374 0 48.5086
24.0598 0 43.153
-6.80406 0 -24.2731
-18.9285 0 10.1275
10.8111 0 -18.1739
-90.9469 0 -25.5949
-5.4702 0 -22.3434
19.7467 0 -6.89514
-25.5986 0 -21.0382
-21.5044 0 47.6091
24.8451 0 -1.41327
-0.0234539 0 15.5361
6.73222 0 29.3633
-26.06 0 15.3363
25.4948 0 37.7931
-5.74891 0 10.8725
-27.9324 0 18.5201
-8.51987 0 0.281521
-13.8843 0 14.2631
-15.5498 0 6.14304
4.95756 0 -48.3223
-43.9544 0 45.7767
-57.7363 0 54.0384
45.9159 0 -61.9354
0.683912 0 37.2259
-18.7013 0 6.8539
14.449 0 11.483
-46.4029 0 -33.4628
-11.589 0 -4.87843
26.9321 0 -25.0154
-11.6152 0 20.9847
-21.2149 0 16.7084
-13.8371 0 3.84825
-3.14524 0 5.10551
12.8349 0 7.93233
9.59429 0 -4.34757
7.66657 0 -12.3177
18.9129 0 -32.606
-35.6104 0 -2.95458
-4.87876 0 2.39874
8.71964 0 -3.82952
-4.88396 0 8.37137
8.41516 0 5.33401
4.9471 0 23.0027
-2.17442 0 -12.3163
-7.83857 0 -16.7458
-40.4093 0 -12.1254
10.5522 0 -8.26688
-5.91846 0 0.0532966
9.82013 0 2.54202
-6.3473 0 9.69118
8.30701 0 -17.3992
-110.846 0 16.344
59.4136 0 34.1632
4.30349 0 -9.34058
15.6892 0 -43.7786
3.60602 0 -34.7263
-92.505 0 79.967
61.1473 0 18.6062
21.3433 0 -12.6221
-51.0583 0 30.8742
-22.6056 0 -1.73787
-46.8883 0 31.4355
-1.9134 0 -58.2469
-36.3213 0 -9.60605
38.699 0 22.2838
25.5465 0 64.8362
31.6258 0 -17.7472
-1.6759 0 -1.17422
-38.6612 0 -7.23127
11.5368 0 10.0637
3.20736 0 -9.44759
-0.99134 0 18.0402
-10.1691 0 -9.96745
7.67487 0 -11.5709
-0.719559 0 -17.9528
-3.34872 0 -11.6199
22.2073 0 0.744536
10.8918 0 -10.6314
-35.3546 0 36.4452
-12.9533 0 -5.41959
2.93029 0 -4.86412
80.6814 0 -27.7451
-115.753 0 -109.36
-1.30053 0 9.07608
9.15003 0 -4.76762
-13.0526 0 2.74447
-34.1241 0 -52.5973
-15.5202 0 5.18498
-11.7587 0 0.982301
-11.7391 0 -0.0505264
15.435 0 -7.84696
14.17 0 14.8422
-27.9631 0 -17.997
2.67251 0 -22.0306
2.20744 0 -8.25375
-51.6081 0 -155.748
0.214871 0 -1.132
45.7664 0 162.827
28.8427 0 30.4729
-0.407042 0 22.2645
-32.5354 0 -14.6952
1.67424 0 9.14086
-15.2954 0 67.0739
-3.95637 0 -7.93179
-9.05077 0 0.346824
39.0994 0 91.3701
-37.9963 0 22.5012
-15.7744 0 -56.8507
16.2461 0 46.0739
-4.79105 0 -2.50811
-0.540829 0 -18.7245
2.24103 0 8.94996
-2.95602 0 -106.765
-45.2145 0 -23.0908
9.19901 0 37.2458
0.885939 0 32.5784
-10.1233 0 -3.26771
58.337 0 -20.3299
15.0982 0 5.48492
-59.6682 0 -49.4864
34.6539 0 31.3469
-31.3263 0 16.1155
93.877 0 40.1511
-22.197 0 -26.144
16.3071 0 15.7802
-0.016769 0 22.4172
-40.538 0 -3.82664
32.8828 0 6.55617
39.9778 0 -3.35683
-5.1088 0 -3.94528
17.8572 0 -36.1448
-3.82625 0 -15.9101
2.12085 0 -23.5518
15.5788 0 -35.9036
-13.7849 0 5.13623
-3.15063 0 -9.80333
21.7892 0 33.9253
-2.57426 0 0.0526455
5.42336 0 -17.6332
4.24841 0 -9.40602
42.7338 0 6.49429
42.1675 0 -38.2814
-26.9761 0 -8.71299
56.4787 0 120.54
-109.754 0 -94.4046
-8.06206 0 -48.846
2.25897 0 10.306
24.5096 0 53.5322
-5.28557 0 -1.25245
30.2915 0 -15.3686
-4.84088 0 11.1058
3.19627 0 -6.86601
-3.91849 0 20.1301
3.29106 0 4.86486
-0.919504 0 4.61894
1.87271 0 -6.16046
31.0468 0 24.2427
-60.2328 0 14.1156
9.36416 0 -47.1148
-26.3784 0 5.61856
27.2248 0 -9.19244
13.1312 0 0.750964
-10.491 0 -125.012
-44.2336 0 -23.7623
17.9267 0 58.7789
-4.29623 0 -20.3659
16.6447 0 4.01315
-18.8669 0 1.16954
2.86038 0 -9.61506
3.87698 0 28.6484
4.54334 0 8.84933
1.89632 0 -12.4757
7.07576 0 102.429
-13.4366 0 21.4826
2.13776 0 -0.266672
-55.9953 0 -26.209
-46.9176 0 24.337
-15.01 0 -23.8761
-0.622589 0 15.3531
-51.3092 0 8.8883
43.3295 0 5.32294
-2.00152 0 -9.26287
-3.54302 0 -7.25989
17.1865 0 10.3821
16.0992 0 -3.64835
-56.037 0 -33.9097
-96.63 0 -42.137
24.0735 0 41.5148
34.0882 0 30.7136
181.562 0 79.3128
-17.7883 0 5.78481
49.8322 0 45.7193
-52.6152 0 -17.5821
-1.85085 0 12.697
-35.1529 0 36.8331
72.0821 0 -57.6107
3.07241 0 -15.46
-2.20102 0 -9.64175
-15.1526 0 -3.57974
-3.14769 0 14.7662
-10.4134 0 -39.1589
-37.5418 0 48.6034
-22.2373 0 -3.69285
143.938 0 83.2989
22.5642 0 43.5028
4.81169 0 1.88743
-27.9272 0 41.4182
21.0489 0 4.32241
45.4858 0 -23.0608
13.4652 0 5.51177
11.9199 0 -6.47089
-18.0196 0 -81.6203
-7.14288 0 -7.45803
-1.27306 0 -17.865
4.86273 0 12.4536
22.5747 0 5.00119
-18.1862 0 -1.70423
15.8252 0 -7.42707
25.9696 0 40.1803
-14.8721 0 -16.9924
-9.38555 0 8.98358
-21.4541 0 27.2589
14.2553 0 3.18894
1.61842 0 10.1475
60.5024 0 12.2587
-43.5416 0 -149.435
21.3759 0 153.8
6.34439 0 6.7369
-40.4282 0 -17.9046
28.0721 0 -18.7742
-4.23213 0 -25.6791
2.19289 0 -14.7524
7.35814 0 -11.5259
-81.9656 0 48.8027
1.09651 0 -59.1007
-62.8442 0 -66.4401
-16.0855 0 -3.40131
-21.9468 0 0.697066
-21.6911 0 1.91108
39.5401 0 8.56261
13.7696 0 8.93924
-12.0234 0 -5.53432
-18.9776 0 0.0318744
-71.0616 0 -8.9389
10.0282 0 -12.2353
-10.5087 0 -75.3634
3.65855 0 -10.3638
-19.971 0 24.3005
12.0353 0 -14.3108
-62.1657 0 28.8089
5.65298 0 7.74512
9.40355 0 3.6605
-21.2398 0 -70.0779
40.5292 0 13.8415
42.7355 0 -104.138
-34.2455 0 91.1299
-4.85937 0 5.03957
-43.7391 0 -11.7471
-6.71355 0 5.27337
-16.903 0 -57.0645
11.0128 0 -9.28441
21.3898 0 -31.6897
-13.374 0 -0.272818
2.88647 0 5.43887
-2.38551 0 6.48412
-14.2563 0 11.892
19.3971 0 5.67109
-7.63202 0 -16.8536
8.97958 0 -11.1168
-2.02783 0 29.6323
-31.1528 0 -61.4696
3.48684 0 71.7558
41.4631 0 18.5126
12.7737 0 13.0527
-9.17089 0 47.768
40.6043 0 2.52615
-1.16766 0 -10.1803
-50.0868 0 -19.3373
3.71842 0 0.42545
112.898 0 -24.317
4.2023 0 -8.67044
4.37987 0 -12.5706
6.71504 0 -21.6367
-3.81026 0 -15.026
-7.48358 0 0.0152548
-23.8546 0 28.5616
-20.8983 0 3.31427
18.2017 0 15.2238
11.7071 0 69.3854
-0.596089 0 -24.8048
0.145597 0 5.04469
16.8323 0 0.211003
17.3876 0 22.0973
-18.0969 0 -17.7031
-76.4115 0 -32.8249
128.893 0 52.8143
-47.5995 0 -72.8617
183.847 0 55.4856
16.6385 0 12.7354
1.82016 0 28.6056
2.03704 0 -14.0565
-3.18218 0 -37.3511
-6.13309 0 -1.80973
0.620308 0 -32.9292
16.9744 0 8.13807
-11.9541 0 21.5557
7.9429 0 -15.2664
9.364 0 -14.8396
9.83468 0 3.50567
-28.9199 0 -12.6241
62.3649 0 -13.4266
15.4719 0 -1.20128
56.699 0 -17.4935
-60.9293 0 114.192
19.1306 0 8.05173
-37.0245 0 47.7115
53.4211 0 -50.6507
-88.5715 0 -38.6644
6.6741 0 -7.44725
-22.2372 0 -8.00741
-12.334 0 -1.3705
31.4881 0 8.8542
-13.3387 0 39.7259
49.0173 0 15.7818
9.81636 0 2.95753
-12.4185 0 -4.13671
-13.4146 0 7.89007
5.68208 0 -7.6595
-29.4445 0 -1.85012
-6.98144 0 24.3161
21.632 0 20.878
6.75174 0 3.43091
9.25765 0 14.215
-13.0209 0 11.8285
23.4469 0 -61.7133
-55.7812 0 40.4474
0.00651848 0 -36.3663
-61.9062 0 -49.6817
7.97114 0 -7.45031
0.467514 0 4.37162
-51.6189 0 -15.7183
8.48809 0 7.75757
63.9393 0 23.0223
15.39 0 4.61894
3.07293 0 10.711
-6.5284 0 12.341
-6.77022 0 2.47751
31.1284 0 -76.0004
-7.82055 0 55.1719
-101.293 0 -32.0374
116.039 0 84.5993
-16.5958 0 -7.53276
8.21573 0 23.4724
-29.404 0 40.972
-41.8348 0 -9.24806
70.1291 0 -8.35565
19.2618 0 71.8463
-3.34415 0 -9.50434
-29.0953 0 4.60963
6.01505 0 -5.8416
10.2422 0 -7.00877
-16.2149 0 10.4105
-12.6561 0 -21.369
-4.25272 0 -1.98304
2.29217 0 -36.467
41.802 0 16.5814
-0.0174649 0 8.11936
-32.0291 0 -25.8496
27.1896 0 16.3996
25.63 0 20.3202
-45.8496 0 -52.0792
-71.3876 0 -47.0955
-45.3292 0 26.1304
-10.1402 0 5.70052
50.6115 0 -69.9512
-1.46758 0 -8.43649
-11.4331 0 10.4664
-2.21339 0 46.2579
84.4773 0 -16.628
-16.9899 0 -6.33547
41.0005 0 63.1407
10.1399 0 -1.98165
-14.0369 0 18.7464
-0.0183014 0 -27.3545
12.5915 0 -7.8808
5.02932 0 -13.4529
-12.7933 0 0.115081
-7.98455 0 10.4545
-8.61859 0 -3.49872
-12.9602 0 22.8405
12.412 0 23.6807
-12.5138 0 -19.4444
-15.1241 0 -11.1466
-1.44641 0 -0.743378
0.714832 0 -11.2925
0.694149 0 10.0627
35.217 0 -3.22953
-66.6564 0 69.3902
-2.17729 0 -5.40365
14.1256 0 -5.20386
-63.9947 0 6.29726
-0.43424 0 3.95309
-9.58512 0 -13.4878
-3.20952 0 13.1781
-18.1787 0 -8.87077
16.9055 0 -0.0361047
-19.7889 0 15.1709
8.04903 0 9.89913
11.4792 0 26.9251
7.61211 0 7.60235
-16.6157 0 -45.0773
13.0875 0 -0.715915
10.8621 0 -6.73136
-63.5818 0 -13.2619
18.7101 0 6.28441
70.7894 0 -14.6512
-2.90651 0 -6.12093
21.2649 0 -27.8262
16.3758 0 13.2825
-11.4274 0 -14.0952
-5.41924 0 18.5535
11.2505 0 13.6943
-4.21952 0 -1.44825
-26.6677 0 17.6237
4.98971 0 43.775
1.0327 0 11.3652
21.9413 0 6.23344
-26.3996 0 8.18935
8.92895 0 -30.6788
24.284 0 14.2924
-125.113 0 -12.5187
28.4918 0 1.15465
46.3647 0 32.5709
15.2693 0 32.0405
24.0436 0 94.432
6.12714 0 -1.43431
-0.0285107 0 -24.6393
-88.2777 0 -9.32923
12.8598 0 34.2364
10.9461 0 21.7299
-45.8566 0 -15.6786
8.71178 0 -13.4204
18.3973 0 7.11761
10.4386 0 7.11224
9.15607 0 9.42707
-16.248 0 2.63099
-1.66036 0 25.8675
-1.90562 0 -1.25744
5.15948 0 2.30688
-3.79852 0 8.53433
15.754 0 -20.6467
-37.1596 0 -32.6363
20.7856 0 -17.4238
10.1663 0 -10.055
10.8976 0 -5.65617
-8.83299 0 12.771
-3.63973 0 18.3986
-39.3942 0 -45.1103
28.4236 0 -12.4852
-15.2658 0 -19.6826
-4.53309 0 -10.29
0.182848 0 -0.386902
-7.82143 0 -22.202
-87.877 0 -79.8892
91.0261 0 34.0258
-5.61745 0 -3.19881
39.2993 0 -95.2123
-3.87662 0 -52.35
95.629 0 -28.8818
5.39852 0 -12.3055
-18.9578 0 44.0979
-2.33264 0 6.31469
0.374796 0 -7.37055
-21.5774 0 -19.1522
-11.2352 0 5.26488
-12.4837 0 18.3535
-10.8609 0 -38.6183
-38.731 0 6.50812
18.4288 0 -11.3661
8.91723 0 3.9457
10.0499 0 7.23775
10.2385 0 4.55485
-13.2274 0 20.5768
11.6473 0 12.6956
-29.9001 0 -26.9406
-12.1741 0 -19.5413
-46.5118 0 -3.80641
34.325 0 -27.8026
1.58196 0 1.61953
7.4255 0 -110.502
24.8604 0 15.105
2.18511 0 -0.433765
33.9379 0 100.926
105.916 0 -13.6695
-59.7689 0 -34.7827
44.9966 0 -25.7736
-0.989666 0 -54.5653
-39.1194 0 -11.6578
-20.6682 0 -5.67957
2.40239 0 -14.5333
-8.30693 0 -6.62572
50.888 0 46.3548
-25.376 0 -5.23052
3.22328 0 18.535
1.13114 0 6.09258
16.4349 0 1.74278
38.1871 0 -3.39212
-15.3672 0 -36.99
19.7029 0 0.422646
24.2806 0 -55.0292
28.5152 0 9.23359
44.6666 0 13.9094
9.86084 0 9.31516
-10.1375 0 -3.57437
8.64121 0 10.9904
2.37474 0 12.0017
5.71088 0 15.9612
42.0408 0 -19.8633
7.64564 0 -9.55495
-9.58623 0 12.4485
1.99213 0 10.3428
-8.86745 0 17.5802
4.47656 0 -7.09568
4.43714 0 -16.2168
5.14297 0 -22.7622
8.45538 0 31.8344
2.45796 0 -18.7564
-10.4925 0 -43.399
6.84601 0 -12.3995
-5.42445 0 -5.79311
4.55618 0 -12.3488
-19.1754 0 -45.0626
-8.96861 0 23.7665
-5.93901 0 -15.1348
7.76239 0 33.0588
8.24598 0 -9.265
-10.4084 0 12.6183
35.1365 0 -19.3362
20.3763 0 -29.7731
13.3515 0 1.64899
-31.5392 0 1.73845
-20.6759 0 -1.60934
10.2662 0 2.57622
-33.0426 0 -28.43
24.3699 0 -15.6086
-11.9007 0 -53.8915
56.8759 0 55.6149
0.0228123 0 -29.7877
-67.4898 0 -23.8423
-75.4206 0 61.0248
2.43341 0 8.99667
58.3973 0 73.5771
9.49396 0 -13.5843
-15.3316 0 -19.684
-49.6377 0 37.4816
-39.2638 0 -14.2811
5.45741 0 50.4507
10.6797 0 23.9145
-7.27298 0 6.47845
2.0139 0 10.77
4.40217 0 0.457884
22.3214 0 2.86393
10.5137 0 -7.23683
18.5276 0 -21.5933
-15.2576 0 -7.91036
-18.6271 0 -8.92258
0.885026 0 11.6387
-36.0607 0 -3.19905
-4.18473 0 -3.54877
-22.934 0 49.0204
15.3866 0 26.4098
-70.3239 0 7.98944
15.7965 0 -31.214
-23.6997 0 -11.3092
33.8372 0 14.8836
-44.1238 0 -33.8617
-36.0925 0 39.7226
24.0267 0 29.8934
-25.5768 0 -20.0064
13.4492 0 21.9976
-8.09806 0 4.31214
-7.09489 0 -8.07375
16.2153 0 25.7276
-4.067 0 2.79705
101.21 0 20.1245
10.9568 0 -61.2791
-7.68793 0 -14.2662
-49.1607 0 -35.6682
42.1022 0 82.5817
-0.681075 0 14.9868
-74.6295 0 -4.42322
33.1045 0 23.9504
91.3563 0 26.6122
-7.86855 0 -11.2418