# vtk DataFile Version 3.0
SiWiRVisFile
ASCII
DATASET UNSTRUCTURED_GRID
POINTS 1600 DOUBLE
77.01 100 72.9294
77.4325 100 73.9567
78.3801 100 74.5541
80.3711 100 74.3668
81.4639 100 74.7353
82.3761 100 75.3282
84.2822 100 74.9777
85.3293 100 75.3628
86.5464 100 75.8128
85.0194 100 74.1386
90.9988 100 73.9724
91.5565 100 73.0973
89.5643 100 73.8261
89.2501 100 72.6772
89.0015 100 71.3456
92.0957 100 65.1018
92.8491 100 66.0049
94.8941 100 64.0623
92.3916 100 60.7648
96.9397 100 62.8394
104.164 100 47.9694
105.036 100 50.5619
105.479 100 49.5856
106.595 100 49.2654
105.131 100 48.5478
108.451 100 49.3679
109.695 100 44.226
111.025 100 44.1178
110.444 100 45.1365
111.658 100 45.0138
112.818 100 45.0083
114.042 100 45.1103
113.486 100 44.1346
114.795 100 44.2061
116.051 100 49.3702
119.362 100 48.5483
117.897 100 49.2654
119.014 100 49.5863
119.457 100 50.5625
120.327 100 47.9686
127.569 100 62.8424
132.101 100 60.7648
129.61 100 64.0714
131.604 100 65.9803
132.384 100 65.1514
135.499 100 71.3597
135.251 100 72.7044
134.949 100 73.8266
132.935 100 73.0948
133.492 100 73.9725
139.473 100 74.138
137.946 100 75.814
139.163 100 75.3642
140.209 100 74.9777
142.116 100 75.3282
143.028 100 74.7348
144.121 100 74.3672
146.112 100 74.5542
147.06 100 73.9568
147.482 100 72.9294
76.4055 100 74.4347
77.4112 100 75.0602
79.4665 100 75.0575
80.4234 100 75.6489
81.4108 100 76.0254
83.3324 100 75.7185
84.4396 100 76.1237
85.5313 100 76.4525
86.4844 100 76.86
87.5875 100 76.8701
88.7612 100 77.2293
92.7058 100 72.6433
90.3595 100 73.0768
91.1695 100 70.8297
92.6083 100 67.7106
90.2696 100 71.8154
93.7678 100 65.1991
95.9846 100 63.7702
97.0964 100 63.931
98.84 100 63.5888
104.421 100 49.378
98.7784 100 55.1648
105.528 100 56.4366
110.436 100 47.8403
106.224 100 48.2371
108.658 100 50.4304
109.364 100 48.6919
109.361 100 47.3808
108.699 100 44.4211
111.431 100 46.2338
113.05 100 46.2331
115.796 100 44.4176
115.12 100 47.3786
115.169 100 48.7172
115.831 100 50.4261
118.268 100 48.2365
114.056 100 47.8562
118.725 100 56.4233
125.714 100 55.1648
120.071 100 49.3784
125.704 100 63.5516
127.384 100 63.9557
128.521 100 63.7067
130.685 100 65.1688
134.214 100 71.7924
131.904 100 67.6992
133.314 100 70.8216
134.139 100 73.0658
131.782 100 72.636
135.733 100 77.223
136.905 100 76.865
138.008 100 76.8618
138.959 100 76.4538
140.052 100 76.1232
141.16 100 75.7184
143.082 100 76.0251
144.069 100 75.6488
145.026 100 75.0572
147.081 100 75.0603
148.087 100 74.4347
76.4386 100 75.5915
77.3825 100 76.2244
78.5198 100 75.7107
79.4736 100 76.2536
80.4108 100 76.7439
82.5181 100 76.3804
83.4918 100 76.8232
84.556 100 77.3827
85.639 100 77.6496
86.8108 100 77.8988
87.8492 100 78.0583
89.0811 100 78.3461
90.9724 100 77.0717
91.8252 100 71.8067
92.9845 100 69.4295
93.4336 100 68.4117
94.0971 100 66.2451
94.9009 100 65.2686
95.8865 100 64.8288
98.0444 100 62.8604
98.9686 100 62.2715
103.587 100 58.2219
105.724 100 57.5321
106.798 100 57.3408
105.072 100 53.8988
107.067 100 56.2432
106.929 100 55.1218
105.755 100 55.3719
110.529 100 46.7895
111.604 100 47.4967
112.917 100 47.4851
113.927 100 46.8157
118.623 100 55.08
117.501 100 55.1201
117.459 100 56.2724
119.464 100 54.078
117.728 100 57.2957
118.812 100 57.5542
120.902 100 58.2935
125.515 100 62.2871
126.455 100 62.8274
128.638 100 64.7935
129.615 100 65.3129
130.384 100 66.2428
131.076 100 68.3646
131.558 100 69.3938
132.672 100 71.8073
133.556 100 77.0297
135.409 100 78.3406
136.641 100 78.06
137.682 100 77.8989
138.853 100 77.65
139.937 100 77.3811
141 100 76.8228
141.974 100 76.3803
144.082 100 76.7439
145.019 100 76.2538
145.973 100 75.7108
147.11 100 76.2245
148.054 100 75.5915
76.3554 100 76.7365
77.4859 100 77.3538
78.4847 100 76.7504
79.4704 100 77.3798
81.6377 100 77.0711
82.5917 100 77.535
83.6019 100 77.9216
84.8882 100 78.4337
85.9649 100 78.7253
87.1763 100 78.8491
88.6767 100 79.3193
89.8861 100 79.0517
90.0942 100 77.98
92.7779 100 71.4253
92.2728 100 70.4425
94.0748 100 69.5709
94.6376 100 68.5707
94.0159 100 67.3949
95.1291 100 66.2895
96.1443 100 65.8401
97.2089 100 65.4344
100.046 100 63.9705
104.245 100 57.2886
105.177 100 60.3322
105.318 100 58.9949
106.304 100 58.6467
109.173 100 58.1389
110.24 100 58.2249
108.132 100 56.0963
111.218 100 48.5075
113.269 100 48.5087
116.388 100 56.073
114.237 100 58.2195
115.443 100 58.4418
118.111 100 58.8708
119.411 100 58.7932
119.298 100 60.0886
120.2 100 57.4626
124.481 100 63.9795
127.287 100 65.3961
128.366 100 65.7853
129.355 100 66.3152
130.471 100 67.3868
129.649 100 68.5127
130.478 100 69.5493
132.255 100 70.4562
131.716 100 71.429
134.382 100 77.9941
134.619 100 79.0565
135.818 100 79.3198
137.323 100 78.8487
138.531 100 78.7265
139.606 100 78.4323
140.89 100 77.9217
141.901 100 77.5348
142.855 100 77.0708
145.022 100 77.38
146.007 100 76.7506
147.006 100 77.3541
148.137 100 76.7365
76.5394 100 77.9272
77.6078 100 78.5483
78.528 100 77.9373
80.604 100 77.861
81.7206 100 78.274
82.7841 100 78.9402
83.9904 100 79.1303
84.9711 100 79.6172
86.6883 100 79.9165
87.7062 100 79.8466
88.4554 100 80.8065
90.8967 100 79.3575
91.6459 100 78.1142
94.5338 100 70.9953
93.4558 100 70.457
96.278 100 69.7503
95.8085 100 68.5313
95.9653 100 67.387
96.95 100 66.5923
98.2922 100 66.1196
98.0404 100 64.4976
102.909 100 63.9442
106.511 100 59.8363
107.458 100 59.3763
107.707 100 58.2458
108.552 100 59.3618
109.628 100 59.2306
110.507 100 60.0997
107.863 100 57.1313
111.428 100 50.4263
113.058 100 50.4052
116.671 100 57.1157
113.794 100 59.8769
114.791 100 59.2492
115.815 100 59.5485
116.753 100 58.246
117.048 100 59.3103
118.104 100 59.9053
121.702 100 63.9578
126.469 100 64.569
126.177 100 66.1225
127.569 100 66.5626
128.569 100 67.399
128.553 100 68.4846
128.361 100 69.802
131.053 100 70.468
129.986 100 71.0744
132.869 100 78.1944
133.591 100 79.3295
136.046 100 80.8138
136.788 100 79.8467
137.803 100 79.9108
139.523 100 79.6147
140.504 100 79.13
141.708 100 78.9392
142.772 100 78.2743
143.889 100 77.8614
145.964 100 77.9373
146.885 100 78.5486
147.953 100 77.9273
76.5702 100 79.1391
77.6382 100 79.6912
78.5552 100 78.983
79.544 100 78.4338
80.7591 100 78.9866
81.7466 100 79.508
82.9036 100 80.1617
84.1206 100 80.2905
85.1654 100 80.6165
86.2939 100 80.9284
87.4062 100 81.0248
89.5071 100 80.071
91.6398 100 80.2395
91.5157 100 76.0638
92.6426 100 75.4899
95.2252 100 69.9287
96.9878 100 70.5688
97.1474 100 68.889
96.9637 100 67.8265
99.1415 100 66.9874
99.034 100 65.263
101.159 100 64.8921
103.744 100 62.7169
105.024 100 63.022
106 100 61.0482
107.443 100 60.4742
108.232 100 61.3282
109.164 100 60.3251
111.553 100 60.3059
111.28 100 58.3451
113.184 100 58.2899
112.916 100 60.4332
114.892 100 60.2256
116.167 100 61.3762
117.128 100 60.3837
119.072 100 61.2928
119.639 100 63.0452
120.81 100 62.8602
123.365 100 64.8708
125.484 100 65.3115
125.325 100 66.9831
127.429 100 68.0971
127.285 100 69.1451
127.46 100 70.3484
129.492 100 70.033
131.838 100 75.4825
132.959 100 76.0885
132.867 100 80.2356
134.987 100 80.0636
137.097 100 81.0203
138.206 100 80.9173
139.332 100 80.6113
140.384 100 80.2836
141.59 100 80.1599
142.746 100 79.5079
143.734 100 78.9863
144.949 100 78.4342
145.937 100 78.9833
146.855 100 79.6912
147.922 100 79.1384
75.7651 100 80.1567
76.8219 100 80.4327
78.7127 100 80.0328
79.7231 100 79.6605
80.8801 100 80.1933
81.2368 100 81.6646
83.4775 100 81.195
84.4821 100 81.4386
85.536 100 81.6928
86.6645 100 82.0086
87.8033 100 82.0633
90.5591 100 80.5389
91.8009 100 81.315
92.4035 100 76.7071
95.5564 100 71.9663
95.6658 100 70.8946
97.7694 100 71.45
98.6601 100 69.36
97.9563 100 68.2124
99.8116 100 66.0777
100.071 100 65.0213
102.234 100 65.0513
104.479 100 63.9179
106.83 100 61.717
108.545 100 62.3898
109.518 100 61.5903
109.845 100 64.0687
110.795 100 61.1686
109.175 100 65.0455
110.471 100 66.1184
114.026 100 65.0004
115.403 100 64.5834
113.971 100 61.0076
114.445 100 63.897
115.072 100 61.4845
115.922 100 62.4417
117.593 100 61.618
119.926 100 64.0994
122.202 100 64.9644
124.431 100 65.0684
124.674 100 66.0731
126.329 100 68.1525
126.067 100 69.3874
127.06 100 71.3477
128.653 100 70.8569
128.905 100 71.8528
132.054 100 76.6747
132.6 100 81.281
133.933 100 80.5287
136.687 100 82.0595
137.829 100 81.9886
138.956 100 81.6788
140.014 100 81.4345
141.019 100 81.1931
143.26 100 81.6637
143.614 100 80.1935
144.769 100 79.6612
145.781 100 80.033
147.671 100 80.4331
148.727 100 80.1565
76.0347 100 81.254
77.2744 100 81.5538
78.2413 100 81.0014
79.1477 100 81.8271
79.8278 100 80.7067
80.1828 100 82.0407
82.5217 100 81.7095
83.5473 100 82.2787
84.581 100 82.5017
85.8135 100 82.7734
87.0771 100 83.0072
88.2229 100 83.1095
89.7649 100 81.4848
89.0685 100 82.3918
89.8004 100 83.3127
93.0205 100 80.5363
96.8347 100 72.1785
98.364 100 70.4322
99.6637 100 69.2145
99.3209 100 68.1355
100.422 100 67.0204
101.241 100 66.01
103.734 100 64.856
106.19 100 62.8733
107.417 100 62.5724
109.381 100 63.1162
108.251 100 63.3916
107.088 100 66.2596
108.08 100 65.7356
110.354 100 67.3882
114.467 100 67.2612
115.917 100 65.6318
117.161 100 66.1387
115.709 100 63.5603
114.884 100 62.7326
117.169 100 62.6875
118.418 100 62.6992
120.784 100 64.7388
123.217 100 65.9966
124.086 100 66.9884
125.224 100 68.116
124.915 100 69.1982
126.024 100 70.5041
127.725 100 72.3463
131.441 100 80.5461
134.685 100 83.2963
135.424 100 82.3971
134.728 100 81.4757
136.275 100 83.1089
137.413 100 82.9927
138.665 100 82.7711
139.921 100 82.5056
140.944 100 82.2865
141.976 100 81.7042
144.308 100 82.0373
144.663 100 80.7098
145.344 100 81.8286
146.248 100 81.0039
147.217 100 81.5533
148.457 100 81.2541
75.9001 100 82.3063
76.9683 100 82.6129
78.1599 100 82.2442
79.194 100 83.0702
80.2058 100 83.9927
79.5882 100 84.8456
81.1499 100 82.8645
82.3513 100 83.1151
83.8216 100 83.2693
83.2072 100 84.4287
84.89 100 83.5991
86.2095 100 84.0972
87.3927 100 84.0528
88.897 100 83.9201
90.9997 100 83.2515
92.1603 100 79.2526
97.2227 100 73.3997
97.9226 100 72.5206
99.5511 100 70.3207
100.691 100 70.0156
[...]
POINT_DATA 1600
SCALARS mass double
LOOKUP_TABLE default
1
1
1
1
1
1
1
1
1
1
1
1
1
1
1
1
1
1
1
1
1
1
1
1
1
1
1
1
1
1
1
1
1
1
1
1
1
1
1
1
1
1
1
1
1
1
1
1
1
1
1
1
1
1
1
1
1
1
1
1
1
1
1
1
1
1
1
1
1
1
1
1
1
1
1
1
1
1
1
1
1
1
1
1
1
1
1
1
1
1
1
1
1
1
1
1
1
1
1
1
1
1
1
1
1
1
1
1
1
1
1
1
1
1
1
1
1
1
1
1
1
1
1
1
1
1
1
1
1
1
1
1
1
1
1
1
1
1
1
1
1
1
1
1
1
1
1
1
1
1
1
1
1
1
1
1
1
1
1
1
1
1
1
1
1
1
1
1
1
1
1
1
1
1
1
1
1
1
1
1
1
1
1
1
1
1
1
1
1
1
1
1
1
1
1
1
1
1
1
1
1
1
1
1
1
1
1
1
1
1
1
1
1
1
1
1
1
1
1
1
1
1
1
1
1
1
1
1
1
1
1
1
1
1
1
1
1
1
1
1
1
1
1
1
1
1
1
1
1
1
1
1
1
1
1
1
1
1
1
1
1
1
1
1
1
1
1
1
1
1
1
1
1
1
1
1
1
1
1
1
1
1
1
1
1
1
1
1
1
1
1
1
1
1
1
1
1
1
1
1
1
1
1
1
1
1
1
1
1
1
1
1
1
1
1
1
1
1
1
1
1
1
1
1
1
1
1
1
1
1
1
1
1
1
1
1
1
1
1
1
1
1
1
1
1
1
1
1
1
1
1
1
1
1
1
1
1
1
1
1
1
1
1
1
1
1
1
1
1
1
1
1
1
1
1
1
1
1
1
1
1
1
1
1
1
1
1
1
1
1
1
1
1
1
1
1
1
1
1
1
1
1
1
1
1
1
1
1
1
1
1
1
1
1
1
1
1
1
1
1
1
1
1
1
1
1
1
1
1
1
1
1
1
1
1
1
1
1
1
1
1
1
1
1
1
1
1
1
1
1
1
1
1
1
1
1
1
1
1
1
1
1
1
1
1
1
1
1
1
1
1
1
1
1
1
1
1
1
1
1
1
1
1
1
1
1
1
1
1
1
1
1
1
1
1
1
1
1
1
1
1
1
1
1
1
1
1
1
1
1
1
1
1
1
1
1
1
1
1
1
1
1
1
1
1
1
1
1
1
1
1
1
1
1
1
1
1
1
1
1
1
1
1
1
1
1
1
1
1
1
1
1
1
1
1
1
1
1
1
1
1
1
1
1
1
1
1
1
1
1
1
1
1
1
1
1
1
1
1
1
1
1
1
1
1
1
1
1
1
1
1
1
1
1
1
1
1
1
1
1
1
1
1
1
1
1
1
1
1
1
1
1
1
1
1
1
1
1
1
1
1
1
1
1
1
1
1
1
1
1
1
1
1
1
1
1
1
1
1
1
1
1
1
1
1
1
1
1
1
1
1
1
1
1
1
1
1
1
1
1
1
1
1
1
1
1
1
1
1
1
1
1
1
1
1
1
1
1
1
1
1
1
1
1
1
1
1
1
1
1
1
1
1
1
1
1
1
1
1
1
1
1
1
1
1
1
1
1
1
1
1
1
1
1
1
1
1
1
1
1
1
1
1
1
1
1
1
1
1
1
1
1
1
1
1
1
1
1
1
1
1
1
1
1
1
1
1
1
1
1
1
1
1
1
1
1
1
1
1
1
1
1
1
1
1
1
1
1
1
1
1
1
1
1
1
1
1
1
1
1
1
1
1
1
1
1
1
1
1
1
1
1
1
1
1
1
1
1
1
1
1
1
1
1
1
1
1
1
1
1
1
1
1
1
1
1
1
1
1
1
1
1
1
1
1
1
1
1
1
1
1
1
1
1
1
1
1
1
1
1
1
1
1
1
1
1
1
1
1
1
1
1
1
1
1
1
1
1
1
1
1
1
1
1
1
1
1
1
1
1
1
1
1
1
1
1
1
1
1
1
1
1
1
1
1
1
1
1
1
1
1
1
1
1
1
1
1
1
1
1
1
1
1
1
1
1
1
1
1
1
1
1
1
1
1
1
1
1
1
1
1
1
1
1
1
1
1
1
1
1
1
1
1
1
1
1
1
1
1
1
1
1
1
1
1
1
1
1
1
1
1
1
1
1
1
1
1
1
1
1
1
1
1
1
1
1
1
1
1
1
1
1
1
1
1
1
1
1
1
1
1
1
1
1
1
1
1
1
1
1
1
1
1
1
1
1
1
1
1
1
1
1
1
1
1
1
1
1
1
1
1
1
1
1
1
1
1
1
1
1
1
1
1
1
1
1
1
1
1
1
1
1
1
1
1
1
1
1
1
1
1
1
1
1
1
1
1
1
1
1
1
1
1
1
1
1
1
1
1
1
1
1
1
1
1
1
1
1
1
1
1
1
1
1
1
1
1
1
1
1
1
1
1
1
1
1
1
1
1
1
1
1
1
1
1
1
1
1
1
1
1
1
1
1
1
1
1
1
1
1
1
1
1
1
1
1
1
1
1
1
1
1
1
1
1
1
1
1
1
1
1
1
1
1
1
1
1
1
1
1
1
1
1
1
1
1
1
1
1
1
1
1
1
1
1
1
1
1
1
1
1
1
1
1
1
1
1
1
1
1
1
1
1
1
1
1
1
1
1
1
1
1
1
1
1
1
1
1
1
1
1
1
1
1
1
1
1
1
1
1
1
1
1
1
1
1
1
1
1
1
1
1
1
1
1
1
1
1
1
1
1
1
1
1
1
1
1
1
1
1
1
1
1
1
1
1
1
1
1
1
1
1
1
1
1
1
1
1
1
1
1
1
1
1
1
1
1
1
1
1
1
1
1
1
1
1
1
1
1
1
1
1
1
1
1
1
1
1
1
1
1
1
1
1
1
1
1
1
1
1
1
1
1
1
1
1
1
1
1
1
1
1
1
1
1
1
1
1
1
1
1
1
1
1
1
1
1
1
1
1
1
1
1
1
1
1
1
1
1
1
1
1
1
1
1
1
1
1
1
1
1
1
1
1
1
1
1
1
1
1
1
1
1
1
1
1
1
1
1
1
1
1
1
1
1
1
1
1
1
1
1
1
1
1
1
1
1
1
1
1
1
1
1
1
1
1
1
1
1
1
1
1
1
1
1
1
1
1
1
1
1
1
1
1
1
1
1
1
1
1
1
1
1
1
1
1
1
1
1
1
1
1
1
1
1
1
1
1
1
1
1
1
1
1
1
1
1
1
1
1
1
1
1
1
1
1
1
1
1
1
1
1
1
1
1
1
1
1
1
1
1
1
1
1
1
1
1
1
1
1
1
1
1
1
1
1
1
1
1
1
1
1
1
1
1
1
1
1
1
1
1
1
1
1
1
1
1
1
1
1
1
1
1
1
1
1
1
1
1
1
1
1
1
1
1
1
1
1
1
1
1
1
1
1
1
1
1
1
1
1
1
1
1
1
1
1
1
1
1
1
1
1
1
1
1
1
1
1
1
1
1
1
1
1
1
1
1
1
1
1
1
1
1
1
1
1
1
1
1
1
1
1
1
1
1
1
1
1
1
1
1
1
1
1
1
1
1
1
1
1
1
1
1
1
1
1
1
1
1
1
VECTORS force double
-2.27367 0 0.896229
-1.43321 0 0.0157565
20.5983 0 9.91776
3.14429 0 18.2883
-24.727 0 9.57305
-58.1887 0 -37.8293
-11.7211 0 17.0156
1.61021 0 -3.44962
-14.3908 0 -35.455
3.88658 0 11.7467
-32.1317 0 52.129
30.5997 0 -64.0712
-3.13349 0 -2.4295
18.6761 0 -2.32976
11.6499 0 13.1959
9.27619 0 7.5737
16.0324 0 -8.9225
9.34752 0 21.9563
0 0 0
-12.8049 0 1.78012
3.36726 0 8.50744
-13.7907 0 10.9191
41.922 0 -14.7936
-6.28617 0 11.8185
9.95366 0 -17.8527
-1.89256 0 -19.0339
105.221 0 -10.4236
-19.2115 0 2.23417
13.3825 0 -8.98799
0.244216 0 21.5672
0.221557 0 20.3255
-8.91644 0 -1.96725
15.1287 0 -4.70178
-92.2164 0 -8.89457
12.5219 0 -14.0746
-10.3761 0 -17.8088
6.32534 0 11.6581
-41.9688 0 -14.7341
13.749 0 10.8107
-3.21418 0 8.39905
9.65118 0 10.7713
0 0 0
-12.245 0 21.601
-19.68 0 -4.46586
-5.70883 0 3.05867
-11.5603 0 12.5515
-16.0542 0 -4.38425
-2.549 0 -5.11855
-29.0598 0 -62.4674
33.3389 0 46.092
-3.93759 0 11.6491
14.2849 0 -34.7887
-1.92163 0 -3.44329
11.9586 0 16.948
58.0289 0 -37.7912
24.5404 0 9.66466
-3.11077 0 18.2803
-20.596 0 9.89173
1.43463 0 0.00594767
2.27427 0 0.895898
14.104 0 9.28203
-3.81323 0 19.5215
-11.1642 0 10.0702
-28.5068 0 -37.5724
34.5541 0 -18.5085
107.504 0 -7.03219
-5.99562 0 4.15323
-53.3504 0 -6.10362
33.2581 0 59.741
8.14865 0 21.2262
-14.1016 0 16.1962
-19.5082 0 -16.0285
5.61178 0 -30.4647
9.29107 0 14.0771
-3.6695 0 -12.6575
-3.20382 0 9.44733
-6.08142 0 -2.19691
9.18465 0 -34.1603
-3.3227 0 6.62238
17.1734 0 18.6296
-22.6165 0 6.51415
0 0 0
2.23201 0 14.4632
-58.7042 0 -9.48274
-10.6387 0 -4.80235
3.47541 0 14.9339
5.63363 0 -13.8631
18.7319 0 9.78459
-86.6903 0 17.7589
32.4237 0 -21.544
-36.9602 0 -25.2153
73.1341 0 16.249
-17.9524 0 9.58259
-14.7707 0 -19.307
-4.25012 0 17.0563
10.74 0 -4.59635
68.4243 0 -9.66521
-20.5849 0 -1.55555
0 0 0
22.7812 0 6.58837
-37.8162 0 38.4553
12.4676 0 -2.07319
-12.6101 0 -13.0192
23.9177 0 1.54171
1.72592 0 8.64205
15.9255 0 -20.7508
-0.103258 0 17.4203
-4.42799 0 -20.168
19.6318 0 -15.6975
14.343 0 16.251
-8.49706 0 21.1809
-34.2424 0 58.7923
55.2146 0 -6.9673
5.84667 0 4.50611
-107.235 0 -7.30081
-34.5989 0 -18.4438
28.6526 0 -37.5864
11.0061 0 10.1631
3.82591 0 19.5317
-14.0987 0 9.28831
0.598084 0 2.59559
15.1941 0 -4.39889
-22.3273 0 -67.8187
-17.5052 0 -23.3188
48.2808 0 27.4046
-57.532 0 52.3731
34.5358 0 8.21725
0.301668 0 -34.6076
27.4543 0 -23.91
-78.653 0 -76.5002
95.1762 0 -46.0216
-37.0882 0 -52.5466
6.49956 0 13.4828
-68.1368 0 30.825
-14.08 0 11.944
35.3421 0 11.4288
-62.7939 0 2.03838
-28.5208 0 -36.2056
2.25109 0 -29.2601
-21.4594 0 1.85493
6.9687 0 6.43099
4.27251 0 -3.40991
-11.4086 0 18.8672
0.548205 0 10.9691
1.8791 0 3.50423
-23.9741 0 10.7207
-7.90908 0 8.72181
15.9357 0 -15.0462
-24.4816 0 -10.1873
-3.62733 0 -31.0053
3.54506 0 -31.0133
26.621 0 -11.6958
5.26989 0 4.19389
-3.57276 0 13.0791
14.1174 0 -31.6602
-7.52675 0 8.84229
29.7652 0 38.5821
10.1997 0 9.81904
4.1799 0 11.9795
-11.5874 0 4.95809
49.9626 0 -18.181
14.5184 0 -61.4662
-1.54135 0 -51.1448
66.1547 0 -7.49819
-38.1254 0 27.9073
11.938 0 12.7897
65.9597 0 28.992
-0.259806 0 19.1827
37.9281 0 -50.9546
-89.6628 0 -42.564
77.1831 0 -79.6128
-26.5536 0 -23.6792
-0.728487 0 -34.4713
-34.5593 0 8.54077
57.7471 0 52.3809
-48.3413 0 27.4798
17.3943 0 -23.4244
22.3589 0 -67.6668
-15.1858 0 -4.3766
-0.612191 0 2.62833
19.1315 0 7.80032
13.8824 0 0.747915
-15.8122 0 69.1014
11.5065 0 -43.6528
-42.8438 0 24.3741
14.0175 0 6.59158
12.075 0 38.8601
-20.0284 0 25.7186
17.107 0 7.67339
-15.981 0 128.898
-5.87806 0 28.6043
-23.4193 0 9.35278
30.4316 0 -24.3406
73.1628 0 -19.6233
4.84159 0 -5.05512
28.9929 0 -18.6755
-7.28277 0 -0.684322
-2.60242 0 7.97975
72.0531 0 55.4996
5.41448 0 39.0622
5.58169 0 0.150123
-10.0675 0 -37.0911
7.96439 0 2.68135
0.361692 0 -21.1516
-38.6329 0 23.0853
57.8593 0 -18.9145
-33.5116 0 14.7996
-26.7329 0 7.02171
22.446 0 -28.5859
45.3587 0 59.0021
-54.3543 0 64.3305
-10.5192 0 -22.4872
52.962 0 10.8735
38.017 0 -37.7643
2.83312 0 -66.1786
-11.9456 0 -0.666554
-15.1775 0 -3.13547
-21.6576 0 -6.89099
8.37418 0 -9.01968
-1.10813 0 2.56593
-11.1499 0 59.9236
-80.8812 0 69.0076
0.212608 0 3.41034
23.9667 0 3.41306
-15.8707 0 -29.3774
-15.4871 0 -5.16688
-69.3615 0 -20.0374
-28.133 0 -23.4301
11.8436 0 7.55699
4.17097 0 21.3227
11.1811 0 129.36
-17.2952 0 7.78826
20.1115 0 25.5066
-12.2721 0 38.6645
-13.9121 0 6.61656
42.6939 0 24.3385
-11.4676 0 -43.5572
15.9285 0 69.036
-13.9183 0 0.685959
-19.1263 0 7.77964
6.85114 0 8.50433
-69.0247 0 -23.9724
-12.7383 0 -58.8987
-2.21328 0 -2.23857
-5.01536 0 5.74182
0.334998 0 -4.00279
-23.567 0 -8.14759
14.0915 0 -102.836
-73.5613 0 -14.0724
78.8392 0 14.813
28.0737 0 -14.2686
44.8926 0 18.6629
2.77388 0 6.31898
1.99881 0 -15.6909
-15.4316 0 24.8771
14.4393 0 -25.9328
9.86313 0 5.9534
-9.38705 0 -15.2602
4.63524 0 12.0075
-2.28933 0 0.00746276
15.8471 0 10.9217
9.98053 0 14.0834
-50.7666 0 16.0446
18.9364 0 -37.4571
-5.43946 0 6.32587
-5.70926 0 -5.45129
21.7261 0 -1.25573
-48.0649 0 -18.5413
2.12319 0 17.1446
3.38541 0 -1.19408
-3.3728 0 -1.1953
-12.6234 0 12.8708
61.4923 0 -31.6746
-91.5848 0 -133.973
35.7723 0 1.55641
-1.7094 0 -8.20556
2.57408 0 -10.1083
15.7774 0 51.504
-14.994 0 2.55339
-17.8435 0 9.32726
19.5153 0 21.9181
-1.65453 0 1.12184
-7.08199 0 -25.1382
-26.9961 0 26.4317
28.7338 0 -45.7167
15.6423 0 16.0373
-7.188 0 -11.2094
-1.37083 0 9.64211
-40.5059 0 13.6073
-28.2384 0 -13.5781
-82.6362 0 14.5636
78.134 0 -14.2127
-11.2825 0 -106.469
23.82 0 -9.22986
-0.26837 0 -3.95992
4.92378 0 5.63398
2.25138 0 -2.48871
12.7609 0 -58.6014
69.0622 0 -24.1707
-6.82289 0 8.49982
15.8239 0 6.96755
4.73466 0 -12.2402
46.3175 0 42.8509
18.2097 0 46.47
-11.9497 0 2.37123
23.125 0 -15.0614
9.75556 0 -6.74233
-29.2166 0 4.22011
52.7217 0 71.6543
0.321787 0 0.950999
-32.8297 0 -7.85571
-4.51979 0 25.7139
0.769712 0 -16.8474
0.103112 0 -5.93556
-13.4353 0 17.0853
-56.8486 0 -27.183
15.4433 0 21.9268
-38.9946 0 52.955
-26.9861 0 -31.7493
3.5739 0 -2.41436
-37.4894 0 -0.589709
-10.8887 0 -6.31018
11.8882 0 15.349
12.3122 0 -54.84
-2.60989 0 -19.3895
0.777287 0 20.0871
-0.21487 0 -8.9616
5.91468 0 2.3925
32.1133 0 9.4167
44.6101 0 7.9107
-35.8234 0 6.30442
-43.9988 0 32.6585
10.4123 0 181.79
21.8821 0 -16.2723
-16.5713 0 39.4843
-6.77254 0 -6.76671
-12.7067 0 -7.62852
-8.98205 0 13.5602
-18.19 0 -1.8056
10.9164 0 -27.5664
-0.0942795 0 -2.90219
30.2126 0 -39.6299
-4.79198 0 45.7366
-24.661 0 -6.32182
-15.6739 0 9.98541
12.924 0 16.8467
5.00564 0 -17.8847
0.544203 0 -19.8838
6.52309 0 35.5035
31.7657 0 -6.63253
-2.60749 0 -3.21974
-49.4866 0 74.941
23.2623 0 4.12103
-9.387 0 -6.91956
-22.8486 0 -14.7792
11.9337 0 2.56966
-18.2311 0 46.3944
-46.3556 0 42.4389
-4.74597 0 -12.3214
-15.8056 0 6.97581
-1.72322 0 -9.46568
12.3041 0 12.3333
1.82953 0 24.4695
24.7321 0 -66.5469
-22.8715 0 -3.55658
9.36463 0 5.49043
-50.0917 0 -40.379
13.6965 0 1.34865
-1.62611 0 22.5339
-9.17947 0 -29.0567
4.24714 0 8.14784
-6.63834 0 -4.83609
3.78034 0 6.47738
2.54462 0 0.724432
4.85663 0 14.7541
27.2838 0 -2.36082
-23.1195 0 -28.5574
-87.8923 0 1.5659
70.8642 0 -8.2905
-1.56713 0 12.8054
24.6814 0 25.9601
18.8087 0 1.138
-30.7262 0 50.3019
-3.87209 0 -29.1331
13.6158 0 -51.7466
-13.3772 0 -4.7626
6.13604 0 37.491
-5.6428 0 2.71847
-2.478 0 8.42884
-13.567 0 16.5897
12.1355 0 -10.7753
-18.3719 0 28.7053
10.0922 0 -13.4159
20.0153 0 0.311921
-13.3306 0 4.0488
20.3105 0 3.00779
-2.28472 0 0.26409
33.1462 0 -145.557
5.88311 0 5.47729
-18.9566 0 -43.298
16.1375 0 47.2673
-1.73731 0 15.15
1.23441 0 -15.5746
-7.74376 0 19.8629
-12.1242 0 -65.0799
12.931 0 63.5607
-12.9204 0 4.35696
-9.64481 0 10.3458
13.0591 0 -4.57151
-3.55914 0 5.72551
6.87518 0 -23.968
4.62078 0 31.2168
-15.4824 0 6.51438
49.4881 0 -35.2108
-11.4209 0 4.72392
22.311 0 -3.88188
-24.6215 0 -63.9375
-1.91892 0 24.6599
-12.2329 0 12.2807
1.65464 0 -9.35068
20.5695 0 -31.1317
-18.095 0 -16.6897
-2.06554 0 27.4931
-17.4346 0 -21.979
-2.46296 0 49.313
34.7985 0 12.163
-16.5338 0 16.0341
-54.4177 0 -67.6019
70.0747 0 16.9062
-2.64703 0 12.97
-0.224957 0 2.1142
-39.2708 0 -17.8883
-2.11852 0 -13.7235
-0.69469 0 0.344307
15.345 0 -4.32659
-18.7482 0 -2.8633
4.79569 0 -1.3501
-0.357779 0 18.1177
99.1202 0 -12.0138
-10.6205 0 -0.289468
-1.46634 0 -4.63027
-16.371 0 -2.34692
1.69415 0 -11.9013
10.2603 0 5.88348
31.649 0 59.8072
-19.4766 0 -29.4935
-20.1933 0 42.3392
8.65316 0 8.8757
20.6537 0 6.94003
5.67229 0 -13.043
3.29588 0 -35.3534
5.04138 0 3.24713
-10.0707 0 9.05945
-5.47792 0 -33.8132
-13.8321 0 10.1875
-23.6136 0 -49.7415
-6.58998 0 8.58189
19.6988 0 20.4852
30.9387 0 -16.1738
-3.70112 0 5.9075
-5.21331 0 -1.38403
15.9712 0 0.474369
21.2552 0 15.4093
-13.93 0 -7.93451
21.2612 0 -1.74939
-20.5019 0 -6.38151
0.24033 0 -1.93569
3.44245 0 -12.1568
34.4429 0 -11.8654
1.79535 0 4.44079
2.74776 0 9.57908
-85.8738 0 9.09851
65.2508 0 -65.3456
16.1175 0 16.7343
-32.8435 0 12.4129
2.67396 0 47.2043
16.7999 0 -22.0724
1.94637 0 27.5275
17.9117 0 -16.7571
-20.558 0 -31.5609
-0.0523831 0 36.9339
19.3921 0 17.7079
-20.784 0 -11.3457
-5.84783 0 -19.183
13.6598 0 -39.4963
12.3924 0 77.3502
0.512291 0 -6.83434
-4.99768 0 -3.91564
-5.24695 0 89.4981
15.0928 0 -4.04416
14.9386 0 8.48754
18.7462 0 -17.0911
26.085 0 -15.1578
-19.4182 0 5.21644
-15.9791 0 9.85688
-10.0831 0 2.27
10.6411 0 -6.82604
5.87832 0 8.28928
-10.4333 0 -1.93373
-6.8563 0 0.751848
-2.29226 0 10.8915
1.8386 0 -10.257
-9.42425 0 -16.1823
11.9458 0 11.6638
-0.431807 0 -33.1437
0.0582843 0 -23.1482
-77.245 0 25.8307
-47.2352 0 27.6844
-14.0848 0 -34.2649
48.279 0 -24.3375
-30.6078 0 3.0625
71.5191 0 -47.042
31.1967 0 18.96
31.9148 0 -5.19902
26.9139 0 32.5005
-8.71585 0 -6.86048
23.7645 0 -8.79467
-43.4991 0 133.435
-3.82103 0 -21.5188
-12.2976 0 19.6921
2.68836 0 14.8308
-0.0534858 0 -1.70268
32.6151 0 28.427
-14.8914 0 -6.33369
7.57052 0 -1.20222
16.0501 0 10.0048
33.3561 0 -9.18925
-25.4458 0 -19.3807
-14.9359 0 -20.2159
-16.1814 0 8.34206
-19.2614 0 -8.39789
12.7008 0 84.9184
5.08757 0 -4.23719
-0.947432 0 -4.57239
-9.32856 0 73.778
-14.3482 0 -38.8631
5.61841 0 -20.4323
21.3598 0 -11.7638
-19.7471 0 17.7464
0.491088 0 37.2635
5.65971 0 -12.478
5.10786 0 -6.73676
1.09108 0 17.5828
7.03235 0 10.1056
-36.8041 0 -30.3662
8.98972 0 4.77929
8.23681 0 3.32506
-36.9081 0 9.94423
-15.5734 0 -15.9511
19.1071 0 -17.5666
-34.709 0 -5.3411
3.94459 0 -35.6445
-13.815 0 27.1169
0.182901 0 -25.4632
3.96761 0 57.1227
-103.031 0 -154.731
-5.44611 0 11.4619
-2.76858 0 -5.5713
1.29748 0 5.6091
13.3058 0 -25.605
27.1002 0 -2.55152
-29.1728 0 9.94693
-3.57241 0 -3.3506
7.4106 0 -27.6153
7.57033 0 64.3216
11.8848 0 5.40569
13.4132 0 8.34954
64.6984 0 -28.061
-7.24324 0 5.31767
-8.46205 0 -10.25
-46.3581 0 70.3837
-12.7789 0 3.15631
-57.43 0 -0.267118
-16.3957 0 17.3679
85.1451 0 -26.0283
10.7551 0 17.0815
2.09206 0 9.30595
1.99173 0 -1.38428
5.50547 0 -8.39308
71.6361 0 -73.213
19.6517 0 -5.62697
-28.049 0 -14.7657
2.11899 0 -1.75073
-2.18332 0 20.6728
-24.7399 0 -1.4881
-8.34798 0 67.4603
-1.20059 0 -33.6102
18.0975 0 15.843
-9.51181 0 -15.4305
41.2035 0 -5.82444
-33.9758 0 3.91048
36.6423 0 -11.2256
19.8093 0 7.59651
-8.23815 0 4.38337
-8.24877 0 2.8453
34.3345 0 -25.7996
-7.10528 0 10.0105
-0.319317 0 18.3335
-5.56527 0 -6.91157
-5.51745 0 -12.5318
0.261951 0 3.86636
15.8492 0 11.5155
-18.4913 0 5.46113
7.23098 0 11.0247
-22.333 0 19.8733
41.9583 0 -30.1737
52.3579 0 -98.335
-17.5986 0 5.19492
-16.2479 0 26.5834
-2.29439 0 -20.7936
-13.4749 0 26.1634
26.0475 0 24.6085
-56.4735 0 6.70364
59.0802 0 -38.8902
-23.9643 0 -23.5566
15.7035 0 -10.3386
5.7646 0 -15.3128
6.15771 0 9.50942
-15.679 0 9.16008
-29.5082 0 33.5851
0.341285 0 -1.99509
-26.0944 0 -24.7333
-65.6548 0 19.7311
8.22617 0 0.45082
98.776 0 -170.284
14.3443 0 -2.30619
2.36414 0 4.35389
24.868 0 5.3107
-27.8379 0 32.3195
17.8339 0 1.46871
-8.94222 0 -4.61359
-78.0488 0 84.0766
83.575 0 -143.071
-116.36 0 27.1668
19.9839 0 -42.4401
-4.96245 0 7.62901
-32.3777 0 -4.72256
28.2342 0 -59.4065
-35.8574 0 -53.6475
-11.5388 0 58.8992
-6.45011 0 -0.861398
17.0033 0 5.7388
-0.178227 0 -3.47471
1.36431 0 -7.38918
-12.8025 0 -9.87412
5.43559 0 -3.60337
-31.3898 0 -39.1584
0.545575 0 21.9836
-34.9599 0 13.4551
16.9646 0 16.3049
1.66167 0 -19.2907
16.1587 0 35.903
27.3883 0 6.50944
-31.7379 0 -94.3032
-40.9763 0 -29.4516
23.617 0 18.6035
-7.21572 0 11.0156
17.6689 0 4.74906
-15.8207 0 11.5214
-0.48114 0 3.69415
16.548 0 7.74432
-45.6261 0 -0.646589
-16.8753 0 -3.81257
36.3057 0 13.1298
6.83332 0 -26.6911
-123.755 0 50.9417
-3.98833 0 -6.95808
86.5886 0 21.5891
30.3082 0 -22.5426
28.5048 0 -32.5731
92.7208 0 47.2669
-11.4624 0 -12.4895
1.00393 0 -3.41796
-9.86326 0 -20.4427
46.2521 0 -79.7567
8.9084 0 28.0483
-17.472 0 9.00644
126.132 0 144.266
15.844 0 -8.51255
5.85829 0 -8.5664
16.0872 0 0.594495
-6.42948 0 -2.25975
31.3486 0 35.1164
-14.6336 0 -2.12035
-37.7009 0 159.488
-11.6719 0 -9.71208
-33.258 0 1.14889
-4.97824 0 -13.5931
-4.54693 0 19.9893
-12.805 0 -0.542309
14.7854 0 -2.36156
15.8847 0 20.2579
8.53602 0 8.33681
2.92988 0 6.63748
29.8173 0 36.1841
-30.3259 0 50.7642
31.3075 0 -50.1193
-37.355 0 84.5026
-26.8537 0 -15.1794
40.0879 0 -11.5332
-16.2076 0 6.02481
-18.18 0 -11.3915
-5.56191 0 -13.7614
12.2511 0 8.56082
5.22625 0 -7.85145
-52.2254 0 -88.4884
31.1313 0 -16.0275
11.8934 0 15.615
13.8766 0 -11.9785
-44.8541 0 -15.9558
-37.8707 0 -44.4177
-30.4953 0 -21.4043
-92.4312 0 14.4534
9.46972 0 -4.05744
102.118 0 45.0519
-7.00623 0 -26.8001
-35.9862 0 13.5823
33.5343 0 -20.3833
45.375 0 -0.529568
-16.5651 0 7.76993
-3.51875 0 -29.7365
-6.58912 0 -16.1504
18.7546 0 -8.82929
-29.6362 0 -36.9367
5.52409 0 29.5805
6.59885 0 15.2763
1.36291 0 2.39431
-15.454 0 10.3627
-29.496 0 8.96795
16.9912 0 12.1151
-67.8652 0 -17.2434
0.188894 0 -5.35041
-12.9923 0 10.148
6.7589 0 0.956626
-36.0238 0 68.3336
20.5273 0 -24.6033
-5.86366 0 2.58675
6.68551 0 7.82934
18.1864 0 1.87771
-7.83875 0 -16.208
10.5629 0 4.84391
-2.48873 0 -8.2027
-19.2461 0 -20.5348
2.15947 0 9.32062
0.159669 0 -6.01648
-7.65507 0 1.47185
24.7421 0 5.32328
3.19044 0 -20.8358
-5.82271 0 -19.2816
-1.0764 0 -10.2449
0.811551 0 -4.42994
-9.02458 0 -7.14124
3.93962 0 5.81899
8.76448 0 11.926
47.928 0 12.692
-1.78048 0 -10.4709
-6.37326 0 12.6776
-6.52467 0 5.22483
-7.87064 0 -4.5477
28.6894 0 -10.8295
10.7381 0 -13.1526
-18.3551 0 -1.57729
-6.3744 0 8.69221
9.88724 0 -0.913416
-10.7234 0 -4.76536
25.6005 0 69.9354
-6.12693 0 -4.45057
-19.0499 0 -49.3292
-18.6173 0 9.32649
29.7834 0 -22.2172
-13.6886 0 12.294
28.4399 0 13.8657
11.5987 0 16.6697
1.77609 0 2.23414
-6.43231 0 15.2736
-27.729 0 53.9175
29.9693 0 -41.8643
-18.3941 0 -8.8327
10.4437 0 -22.1346
-1.51035 0 -34.0614
-49.1108 0 -29.1867
11.2887 0 26.0176
12.0547 0 20.6867
-50.9623 0 -37.9892
90.8728 0 -71.1377
47.1362 0 -43.1019
-18.0826 0 -12.673
-0.0384393 0 -6.77349
9.55048 0 -13.2774
6.6004 0 -5.53352
-25.7029 0 11.7676
24.0798 0 4.14412
68.0471 0 -19.0286
-11.7458 0 4.35701
3.2381 0 -4.01907
-21.9266 0 -47.9901
-11.8018 0 9.23867
14.8435 0 3.4541
1.40673 0 -5.65556
-17.3739 0 6.04894
-13.6539 0 16.4793
-11.4313 0 -18.2858
12.1966 0 0.622976
27.4649 0 36.7954
8.68945 0 -12.5057
-1.48469 0 12.9979
-13.1869 0 11.6088
15.0485 0 -2.68944
-2.73715 0 1.44391
15.2789 0 11.3137
-6.52862 0 8.95114
5.04342 0 1.05802
-23.4682 0 84.382
-26.7409 0 -6.95979
-34.0936 0 44.0683
-5.73194 0 0.659337
6.85368 0 -1.88366
-10.072 0 8.51295
-17.5169 0 9.52074
19.0129 0 18.3867
-7.0197 0 9.8492
-1.28118 0 -4.50926
-13.7736 0 -0.681789
6.54495 0 14.2805
-7.43429 0 -2.8264
-0.0802952 0 -3.23762
45.7008 0 44.6828
-27.0991 0 -39.8764
12.6595 0 38.4773
11.8301 0 21.3057
-9.90461 0 -9.33035
-5.70763 0 12.509
1.44024 0 -1.24145
31.1192 0 -30.5543
-30.0043 0 -35.3003
-95.5062 0 -57.7359
57.0438 0 -45.6867
-13.9104 0 18.3879
-10.4217 0 34.8889
57.3245 0 -30.7167
16.9084 0 0.348942
-4.89504 0 3.98809
17.2223 0 -3.50993
52.8969 0 -25.175
-17.8244 0 150.305
-21.3362 0 39.7992
-15.4636 0 9.86706
-6.62152 0 -11.2886
18.5158 0 32.5595
-43.0262 0 34.7982
7.44605 0 -13.4465
-53.6647 0 16.8683
-6.45606 0 2.41439
-56.5146 0 -7.08026
-12.7254 0 12.2508
55.3349 0 -19.5127
-1.18255 0 58.4078
1.45546 0 38.9768
-82.1528 0 -48.007
-111.262 0 20.0461
24.1738 0 34.3956
-8.6314 0 -1.66394
-63.8688 0 -39.492
-39.5972 0 70.3337
45.6257 0 -74.3542
-15.9305 0 2.18624
2.09411 0 -10.8814
32.3355 0 -26.3679
-0.387743 0 -14.6752
-15.2598 0 8.18288
10.1342 0 3.41317
-4.29851 0 -7.35657
-3.61908 0 14.4416
36.5063 0 -78.8694
-20.9368 0 -1.39758
34.154 0 10.5653
-3.63107 0 -0.324783
-28.2791 0 -9.90852
-9.56744 0 -10.0846
4.91561 0 8.63723
-9.1906 0 9.62723
-2.33979 0 -17.7068
35.9256 0 -26.2809
3.47059 0 47.9356
8.87382 0 13.9987
-18.3607 0 9.3379
-9.47318 0 33.1743
28.6425 0 -24.3941
47.8455 0 6.95904
10.1728 0 7.03354