# vtk DataFile Version 3.0
SiWiRVisFile
ASCII
DATASET UNSTRUCTURED_GRID
POINTS 1600 DOUBLE
77.5529 100 74.6908
78.6854 100 74.9432
79.6917 100 75.3171
81.3757 100 74.9957
82.475 100 75.0933
83.6541 100 75.2584
85.2126 100 75.5518
86.2678 100 75.7961
87.3265 100 76.1675
88.055 100 75.3154
90.1502 100 75.9213
91.1979 100 76.2035
90.402 100 74.8481
91.4456 100 73.728
91.1452 100 72.6333
93.5976 100 70.0459
94.5532 100 69.4588
96.232 100 70.1358
95.6317 100 67.5679
98.4872 100 68.9124
103.741 100 59.2056
103.136 100 61.1922
104.083 100 60.4129
105.689 100 60.2262
104.746 100 59.4946
107.329 100 59.0334
109.426 100 57.9431
109.241 100 56.5813
110.342 100 57.45
111.563 100 56.8379
112.929 100 56.8379
114.15 100 57.45
115.251 100 56.5813
115.067 100 57.9431
117.164 100 59.0334
119.746 100 59.4946
118.803 100 60.2262
120.41 100 60.4129
121.357 100 61.1922
120.752 100 59.2056
126.005 100 68.9124
128.861 100 67.568
128.26 100 70.1358
129.939 100 69.4588
130.895 100 70.0459
133.347 100 72.6333
133.047 100 73.728
134.09 100 74.8481
133.294 100 76.2035
134.342 100 75.9213
136.437 100 75.3154
137.166 100 76.1675
138.225 100 75.7961
139.28 100 75.5518
140.838 100 75.2584
142.017 100 75.0933
143.117 100 74.9957
144.801 100 75.3171
145.807 100 74.9432
146.94 100 74.6908
77.8074 100 75.7711
78.8935 100 76.0779
80.6769 100 75.831
81.7247 100 76.07
82.9106 100 76.1327
84.2943 100 76.2227
85.5093 100 76.6332
86.5874 100 76.9287
87.8109 100 77.1439
88.9791 100 77.1896
90.289 100 77.2582
91.6334 100 77.3615
92.2698 100 75.2977
92.5449 100 73.9214
93.4362 100 73.0845
92.1775 100 72.708
94.725 100 70.5181
97.5464 100 69.7468
98.5961 100 70.2501
100.639 100 69.0819
102.934 100 60.1759
100.286 100 65.0974
104.016 100 65.2339
109.581 100 60.295
106.171 100 59.2252
106.776 100 60.2207
108.343 100 60.3559
109.256 100 59.0768
110.36 100 58.6485
111.674 100 58.125
112.819 100 58.125
114.132 100 58.6485
115.237 100 59.0768
116.149 100 60.3559
117.717 100 60.2207
118.321 100 59.2252
114.911 100 60.2951
120.476 100 65.2339
124.207 100 65.0974
121.558 100 60.1759
123.854 100 69.0819
125.896 100 70.2501
126.946 100 69.7468
129.767 100 70.5181
132.315 100 72.708
131.056 100 73.0845
131.948 100 73.9214
132.223 100 75.2976
132.859 100 77.3615
134.203 100 77.2582
135.513 100 77.1896
136.681 100 77.1439
137.905 100 76.9287
138.983 100 76.6332
140.198 100 76.2227
141.582 100 76.1327
142.768 100 76.07
143.816 100 75.831
145.599 100 76.0779
146.685 100 75.7711
78.0036 100 76.8521
79.0286 100 77.3023
79.9188 100 76.6337
80.9279 100 76.9332
82.1185 100 77.109
83.5013 100 77.005
84.6413 100 77.3117
85.826 100 77.7498
86.9064 100 78.0011
88.0979 100 78.2361
89.4077 100 78.3992
90.6592 100 78.8836
91.7308 100 78.4209
92.422 100 76.4733
94.3168 100 73.7594
94.6739 100 72.6465
95.2175 100 71.5839
96.185 100 71.2654
97.2522 100 70.7881
99.6549 100 70.0305
101.982 100 68.7909
103.284 100 66.1513
105.01 100 66.6257
105.722 100 65.7571
106.639 100 63.3458
107.952 100 65.9699
108.265 100 64.7898
107.061 100 65.3461
110.651 100 59.9128
111.566 100 59.2693
112.927 100 59.2693
113.842 100 59.9128
117.431 100 65.3461
116.227 100 64.7901
116.541 100 65.97
117.854 100 63.3457
118.771 100 65.757
119.483 100 66.6258
121.208 100 66.1513
122.51 100 68.7909
124.838 100 70.0305
127.24 100 70.7881
128.307 100 71.2654
129.275 100 71.5839
129.819 100 72.6465
130.176 100 73.7594
132.07 100 76.4733
132.762 100 78.4209
133.833 100 78.8836
135.085 100 78.3992
136.394 100 78.2361
137.586 100 78.0011
138.666 100 77.7498
139.851 100 77.3117
140.991 100 77.005
142.374 100 77.109
143.564 100 76.9332
144.574 100 76.6337
145.464 100 77.3023
146.489 100 76.8521
78.0557 100 77.8889
79.1083 100 78.4149
80.1496 100 77.7663
81.2379 100 78.1763
82.7486 100 77.9971
83.8847 100 78.1447
85.0877 100 78.5006
86.1618 100 78.8924
87.2983 100 79.0721
88.4988 100 79.2438
89.6812 100 79.4443
90.6113 100 80.1931
91.6371 100 79.6109
93.2832 100 75.6138
93.5099 100 74.4179
95.4672 100 74.888
95.3461 100 73.5476
96.2506 100 72.2635
97.3709 100 71.9761
98.2919 100 71.2965
99.6822 100 71.1179
101.447 100 69.7484
104.036 100 67.0314
104.824 100 67.8161
105.862 100 67.3646
106.657 100 66.4998
108.837 100 67.2815
109.887 100 66.8312
109.54 100 64.6881
111.755 100 60.4881
112.737 100 60.4881
114.952 100 64.6882
114.605 100 66.8311
115.656 100 67.2815
117.835 100 66.4998
118.631 100 67.3648
119.668 100 67.8162
120.456 100 67.0313
123.046 100 69.7484
124.81 100 71.1179
126.201 100 71.2965
127.122 100 71.9761
128.242 100 72.2635
129.146 100 73.5476
129.025 100 74.888
130.983 100 74.4179
131.209 100 75.6138
132.855 100 79.6109
133.881 100 80.1931
134.811 100 79.4443
135.994 100 79.2438
137.194 100 79.0721
138.331 100 78.8924
139.405 100 78.5006
140.608 100 78.1447
141.744 100 77.9971
143.254 100 78.1763
144.343 100 77.7663
145.384 100 78.4149
146.437 100 77.8889
78.1524 100 78.9723
78.9723 100 79.5806
80.0401 100 78.9593
82.0657 100 78.9116
83.1747 100 79.0126
84.376 100 79.3191
85.3789 100 79.646
86.4861 100 80.0184
87.7308 100 80.2097
88.8634 100 80.2839
89.7843 100 80.9591
91.5319 100 80.7981
92.7171 100 78.9122
94.9044 100 76.9768
94.3276 100 75.0802
96.2534 100 75.7136
96.5894 100 74.6132
96.4152 100 73.4654
98.0315 100 72.9784
98.9766 100 72.2107
100.705 100 70.6886
103.107 100 70.5353
105.716 100 68.5629
106.981 100 68.1445
107.663 100 67.2879
108.298 100 68.226
109.551 100 68.3471
110.623 100 68.8615
109.1 100 65.9696
111.377 100 62.7898
113.116 100 62.7898
115.392 100 65.9696
113.87 100 68.8615
114.941 100 68.3472
116.194 100 68.2259
116.829 100 67.2878
117.512 100 68.1446
118.777 100 68.563
121.385 100 70.5353
123.788 100 70.6886
125.516 100 72.2106
126.461 100 72.9784
128.077 100 73.4654
127.903 100 74.6131
128.239 100 75.7136
130.165 100 75.0802
129.588 100 76.9768
131.775 100 78.9122
132.961 100 80.7981
134.708 100 80.9591
135.629 100 80.2839
136.762 100 80.2097
138.006 100 80.0184
139.113 100 79.646
140.116 100 79.3191
141.318 100 79.0126
142.427 100 78.9116
144.452 100 78.9593
145.52 100 79.5806
146.34 100 78.9723
77.9766 100 80.2289
79.0082 100 80.8144
80.128 100 80.1612
81.0716 100 79.3402
81.991 100 79.9742
83.3884 100 80.125
84.5539 100 80.3809
85.5341 100 80.8798
86.5848 100 81.1956
87.7275 100 81.3228
88.7977 100 81.3875
90.7918 100 81.6529
92.7586 100 81.0317
93.7367 100 79.3897
94.3809 100 78.0561
95.1373 100 75.8988
97.3252 100 76.2432
97.644 100 75.0078
98.2844 100 74.1437
99.6538 100 73.663
100.031 100 72.1177
101.975 100 70.7789
104.003 100 71.1304
105.035 100 70.6972
106.268 100 69.529
107.479 100 69.1518
108.747 100 69.2636
109.923 100 69.6474
111.7 100 68.8796
111.312 100 67.6504
113.181 100 67.6503
112.792 100 68.8796
114.57 100 69.6475
115.745 100 69.2634
117.013 100 69.1519
118.224 100 69.5287
119.457 100 70.6972
120.49 100 71.1304
122.517 100 70.7788
124.461 100 72.1177
124.839 100 73.6631
126.208 100 74.1437
126.848 100 75.0077
127.167 100 76.2432
129.355 100 75.8988
130.112 100 78.0561
130.756 100 79.3897
131.734 100 81.0317
133.701 100 81.6529
135.695 100 81.3875
136.765 100 81.3228
137.908 100 81.1956
138.958 100 80.8798
139.938 100 80.3809
141.104 100 80.125
142.501 100 79.9742
143.421 100 79.3402
144.364 100 80.1612
145.484 100 80.8144
146.516 100 80.2289
77.9082 100 81.3069
79.0199 100 81.9251
80.0372 100 81.3403
81.1761 100 80.711
82.1874 100 81.0294
83.407 100 81.2538
84.5485 100 81.8712
85.659 100 82.0201
87.0417 100 82.1905
88.1154 100 82.3173
89.3326 100 82.3308
91.9408 100 81.9285
92.8246 100 83.007
94.2913 100 80.3265
95.6753 100 78.9818
96.2809 100 77.3704
97.3784 100 77.4464
98.3663 100 75.8533
99.2887 100 74.8981
100.665 100 73.0612
101.35 100 71.7315
102.49 100 71.8514
104.722 100 71.9707
106.313 100 70.8203
107.369 100 70.2591
108.957 100 70.2472
110.08 100 70.66
110.951 100 69.9106
110.016 100 72.2959
110.748 100 71.5175
113.745 100 71.5185
114.478 100 72.2965
113.542 100 69.9105
114.412 100 70.6603
115.535 100 70.2471
117.123 100 70.2592
118.18 100 70.8203
119.77 100 71.9706
122.002 100 71.8513
123.143 100 71.7314
123.827 100 73.0612
125.204 100 74.8981
126.126 100 75.8532
127.114 100 77.4465
128.211 100 77.3703
128.817 100 78.9818
130.201 100 80.3265
131.668 100 83.007
132.552 100 81.9285
135.16 100 82.3308
136.377 100 82.3173
137.451 100 82.1905
138.833 100 82.0201
139.944 100 81.8712
141.085 100 81.2538
142.305 100 81.0294
143.316 100 80.711
144.455 100 81.3403
145.472 100 81.9251
146.584 100 81.3069
77.8876 100 82.4334
78.7577 100 83.0921
79.9922 100 82.5651
80.9801 100 83.1538
81.2988 100 81.9783
82.1344 100 82.5611
83.691 100 82.6152
84.8126 100 82.8987
86.2263 100 82.924
87.2584 100 83.4989
88.317 100 83.8739
89.4889 100 83.6037
90.4698 100 82.8729
91.4432 100 83.746
92.5041 100 84.016
93.8254 100 82.282
96.5274 100 78.3949
98.846 100 76.9034
99.8563 100 75.8075
100.353 100 74.8397
101.413 100 73.9551
101.884 100 72.7882
103.555 100 72.0385
105.906 100 71.8322
107.253 100 71.5993
108.587 100 71.3012
107.283 100 72.8557
108.893 100 73.1652
110.204 100 73.8086
111.1 100 72.7673
113.394 100 72.7648
114.289 100 73.8082
115.599 100 73.1652
117.209 100 72.8556
115.906 100 71.3011
117.239 100 71.5992
118.586 100 71.8323
120.938 100 72.0385
122.608 100 72.7882
123.08 100 73.9551
124.139 100 74.8398
124.636 100 75.8075
125.646 100 76.9034
127.965 100 78.3949
130.667 100 82.282
131.988 100 84.016
133.049 100 83.746
134.023 100 82.8729
135.004 100 83.6037
136.175 100 83.8739
137.234 100 83.4989
138.266 100 82.924
139.68 100 82.8987
140.801 100 82.6152
142.358 100 82.5611
143.194 100 81.9783
143.512 100 83.1538
144.5 100 82.5651
145.735 100 83.0921
146.605 100 82.4334
77.7384 100 83.753
78.8824 100 84.2401
79.7867 100 83.5837
80.7797 100 84.3838
81.9317 100 83.7702
83.0342 100 83.4172
84.0703 100 83.8298
84.9554 100 84.7036
86.1974 100 84.031
87.0507 100 84.6468
88.3368 100 84.9645
89.4189 100 84.8946
90.6171 100 84.5127
91.7953 100 84.7969
93.5772 100 83.6902
94.8532 100 81.4432
96.8654 100 79.4232
97.6522 100 78.6143
99.8309 100 77.214
100.684 100 76.5023
[...]
POINT_DATA 1600
SCALARS mass double
LOOKUP_TABLE default
1
1
1
1
1
1
1
1
1
1
1
1
1
1
1
1
1
1
1
1
1
1
1
1
1
1
1
1
1
1
1
1
1
1
1
1
1
1
1
1
1
1
1
1
1
1
1
1
1
1
1
1
1
1
1
1
1
1
1
1
1
1
1
1
1
1
1
1
1
1
1
1
1
1
1
1
1
1
1
1
1
1
1
1
1
1
1
1
1
1
1
1
1
1
1
1
1
1
1
1
1
1
1
1
1
1
1
1
1
1
1
1
1
1
1
1
1
1
1
1
1
1
1
1
1
1
1
1
1
1
1
1
1
1
1
1
1
1
1
1
1
1
1
1
1
1
1
1
1
1
1
1
1
1
1
1
1
1
1
1
1
1
1
1
1
1
1
1
1
1
1
1
1
1
1
1
1
1
1
1
1
1
1
1
1
1
1
1
1
1
1
1
1
1
1
1
1
1
1
1
1
1
1
1
1
1
1
1
1
1
1
1
1
1
1
1
1
1
1
1
1
1
1
1
1
1
1
1
1
1
1
1
1
1
1
1
1
1
1
1
1
1
1
1
1
1
1
1
1
1
1
1
1
1
1
1
1
1
1
1
1
1
1
1
1
1
1
1
1
1
1
1
1
1
1
1
1
1
1
1
1
1
1
1
1
1
1
1
1
1
1
1
1
1
1
1
1
1
1
1
1
1
1
1
1
1
1
1
1
1
1
1
1
1
1
1
1
1
1
1
1
1
1
1
1
1
1
1
1
1
1
1
1
1
1
1
1
1
1
1
1
1
1
1
1
1
1
1
1
1
1
1
1
1
1
1
1
1
1
1
1
1
1
1
1
1
1
1
1
1
1
1
1
1
1
1
1
1
1
1
1
1
1
1
1
1
1
1
1
1
1
1
1
1
1
1
1
1
1
1
1
1
1
1
1
1
1
1
1
1
1
1
1
1
1
1
1
1
1
1
1
1
1
1
1
1
1
1
1
1
1
1
1
1
1
1
1
1
1
1
1
1
1
1
1
1
1
1
1
1
1
1
1
1
1
1
1
1
1
1
1
1
1
1
1
1
1
1
1
1
1
1
1
1
1
1
1
1
1
1
1
1
1
1
1
1
1
1
1
1
1
1
1
1
1
1
1
1
1
1
1
1
1
1
1
1
1
1
1
1
1
1
1
1
1
1
1
1
1
1
1
1
1
1
1
1
1
1
1
1
1
1
1
1
1
1
1
1
1
1
1
1
1
1
1
1
1
1
1
1
1
1
1
1
1
1
1
1
1
1
1
1
1
1
1
1
1
1
1
1
1
1
1
1
1
1
1
1
1
1
1
1
1
1
1
1
1
1
1
1
1
1
1
1
1
1
1
1
1
1
1
1
1
1
1
1
1
1
1
1
1
1
1
1
1
1
1
1
1
1
1
1
1
1
1
1
1
1
1
1
1
1
1
1
1
1
1
1
1
1
1
1
1
1
1
1
1
1
1
1
1
1
1
1
1
1
1
1
1
1
1
1
1
1
1
1
1
1
1
1
1
1
1
1
1
1
1
1
1
1
1
1
1
1
1
1
1
1
1
1
1
1
1
1
1
1
1
1
1
1
1
1
1
1
1
1
1
1
1
1
1
1
1
1
1
1
1
1
1
1
1
1
1
1
1
1
1
1
1
1
1
1
1
1
1
1
1
1
1
1
1
1
1
1
1
1
1
1
1
1
1
1
1
1
1
1
1
1
1
1
1
1
1
1
1
1
1
1
1
1
1
1
1
1
1
1
1
1
1
1
1
1
1
1
1
1
1
1
1
1
1
1
1
1
1
1
1
1
1
1
1
1
1
1
1
1
1
1
1
1
1
1
1
1
1
1
1
1
1
1
1
1
1
1
1
1
1
1
1
1
1
1
1
1
1
1
1
1
1
1
1
1
1
1
1
1
1
1
1
1
1
1
1
1
1
1
1
1
1
1
1
1
1
1
1
1
1
1
1
1
1
1
1
1
1
1
1
1
1
1
1
1
1
1
1
1
1
1
1
1
1
1
1
1
1
1
1
1
1
1
1
1
1
1
1
1
1
1
1
1
1
1
1
1
1
1
1
1
1
1
1
1
1
1
1
1
1
1
1
1
1
1
1
1
1
1
1
1
1
1
1
1
1
1
1
1
1
1
1
1
1
1
1
1
1
1
1
1
1
1
1
1
1
1
1
1
1
1
1
1
1
1
1
1
1
1
1
1
1
1
1
1
1
1
1
1
1
1
1
1
1
1
1
1
1
1
1
1
1
1
1
1
1
1
1
1
1
1
1
1
1
1
1
1
1
1
1
1
1
1
1
1
1
1
1
1
1
1
1
1
1
1
1
1
1
1
1
1
1
1
1
1
1
1
1
1
1
1
1
1
1
1
1
1
1
1
1
1
1
1
1
1
1
1
1
1
1
1
1
1
1
1
1
1
1
1
1
1
1
1
1
1
1
1
1
1
1
1
1
1
1
1
1
1
1
1
1
1
1
1
1
1
1
1
1
1
1
1
1
1
1
1
1
1
1
1
1
1
1
1
1
1
1
1
1
1
1
1
1
1
1
1
1
1
1
1
1
1
1
1
1
1
1
1
1
1
1
1
1
1
1
1
1
1
1
1
1
1
1
1
1
1
1
1
1
1
1
1
1
1
1
1
1
1
1
1
1
1
1
1
1
1
1
1
1
1
1
1
1
1
1
1
1
1
1
1
1
1
1
1
1
1
1
1
1
1
1
1
1
1
1
1
1
1
1
1
1
1
1
1
1
1
1
1
1
1
1
1
1
1
1
1
1
1
1
1
1
1
1
1
1
1
1
1
1
1
1
1
1
1
1
1
1
1
1
1
1
1
1
1
1
1
1
1
1
1
1
1
1
1
1
1
1
1
1
1
1
1
1
1
1
1
1
1
1
1
1
1
1
1
1
1
1
1
1
1
1
1
1
1
1
1
1
1
1
1
1
1
1
1
1
1
1
1
1
1
1
1
1
1
1
1
1
1
1
1
1
1
1
1
1
1
1
1
1
1
1
1
1
1
1
1
1
1
1
1
1
1
1
1
1
1
1
1
1
1
1
1
1
1
1
1
1
1
1
1
1
1
1
1
1
1
1
1
1
1
1
1
1
1
1
1
1
1
1
1
1
1
1
1
1
1
1
1
1
1
1
1
1
1
1
1
1
1
1
1
1
1
1
1
1
1
1
1
1
1
1
1
1
1
1
1
1
1
1
1
1
1
1
1
1
1
1
1
1
1
1
1
1
1
1
1
1
1
1
1
1
1
1
1
1
1
1
1
1
1
1
1
1
1
1
1
1
1
1
1
1
1
1
1
1
1
1
1
1
1
1
1
1
1
1
1
1
1
1
1
1
1
1
1
1
1
1
1
1
1
1
1
1
1
1
1
1
1
1
1
1
1
1
1
1
1
1
1
1
1
1
1
1
1
1
1
1
1
1
1
1
1
1
1
1
1
1
1
1
1
1
1
1
1
1
1
1
1
1
1
1
1
1
1
1
1
1
1
1
1
1
1
1
1
1
1
1
1
1
1
1
1
1
1
1
1
1
1
1
1
1
1
1
1
1
1
1
1
1
1
1
1
1
1
1
1
1
1
1
1
1
1
1
1
VECTORS force double
7.85366 0 -0.839624
-34.8723 0 6.70428
25.9719 0 13.1081
1.04287 0 -5.87661
9.47378 0 14.7651
-6.91758 0 12.8376
-22.8615 0 0.438605
17.9441 0 15.9975
15.1458 0 -30.9518
-0.727317 0 2.71013
-16.1785 0 14.8226
29.5229 0 15.2397
8.59032 0 -6.56787
2.77524 0 -7.40502
-57.091 0 0.0461337
10.9672 0 4.97402
-1.23373 0 -21.7104
11.8652 0 9.10484
-0.251864 0 0.441571
-5.14958 0 21.145
-48.1476 0 8.80683
20.825 0 48.2399
-15.885 0 -8.52541
-27.7525 0 -3.54315
57.2431 0 20.9629
-11.0279 0 14.2218
-40.2915 0 27.0763
8.18642 0 14.6616
52.9643 0 -18.871
2.44384 0 17.6169
-2.44342 0 17.6171
-52.9509 0 -18.8645
-8.18645 0 14.6612
40.2804 0 27.0672
11.0279 0 14.2218
-57.2439 0 20.963
27.7523 0 -3.54328
15.8851 0 -8.52532
-20.825 0 48.2397
48.1484 0 8.80659
5.14959 0 21.1453
0.251857 0 0.441563
-11.8656 0 9.10931
1.23329 0 -21.7105
-10.9674 0 4.97428
57.0877 0 0.0468889
-2.77558 0 -7.40543
-8.59068 0 -6.5691
-29.5232 0 15.24
16.1794 0 14.8236
0.727023 0 2.70983
-15.1451 0 -30.9515
-17.9436 0 15.9974
22.8609 0 0.438757
6.91759 0 12.8377
-9.47376 0 14.7651
-1.04291 0 -5.87661
-25.9719 0 13.1081
34.8723 0 6.70429
-7.85366 0 -0.839641
11.3784 0 -10.558
-4.87095 0 20.6266
-22.0418 0 6.28254
30.0299 0 -0.887374
-28.564 0 -26.6113
4.91804 0 -0.77333
-2.30374 0 -0.0087942
-12.5888 0 15.8337
-6.47322 0 19.6976
0.166654 0 16.3897
0.811869 0 -6.56059
-10.485 0 -47.1388
-30.9701 0 -6.61991
-6.00601 0 -17.1632
-10.9849 0 9.66934
66.7094 0 28.9206
4.38397 0 27.4422
13.1496 0 -14.8029
-20.9681 0 -12.6649
-32.7781 0 -19.1712
6.33261 0 -64.3651
0 0 0
-2.32819 0 11.7026
-10.2529 0 -14.0282
7.70025 0 3.80743
18.5375 0 -16.8169
8.40524 0 -7.12227
13.5835 0 6.74338
1.4002 0 0.88459
-6.43852 0 -3.70736
6.4387 0 -3.70816
-1.40208 0 0.885907
-13.5831 0 6.74429
-8.4055 0 -7.12226
-18.5372 0 -16.8171
-7.70022 0 3.80769
10.251 0 -14.0288
2.32706 0 11.7031
0 0 0
-6.33263 0 -64.3649
32.7753 0 -19.1668
20.9735 0 -12.6609
-13.1518 0 -14.8037
-4.38313 0 27.4414
-66.7062 0 28.9208
10.9855 0 9.66832
6.0112 0 -17.1655
30.9642 0 -6.61845
10.4851 0 -47.1391
-0.811815 0 -6.5606
-0.166644 0 16.3897
6.47309 0 19.6977
12.5887 0 15.8335
2.30354 0 -0.00876208
-4.91804 0 -0.773431
28.564 0 -26.6113
-30.0299 0 -0.88738
22.0418 0 6.28258
4.87095 0 20.6266
-11.3784 0 -10.558
7.92526 0 -53.4104
6.03429 0 -5.39223
-47.5952 0 -14.6296
53.7172 0 17.9014
-7.58357 0 -11.4061
17.4254 0 55.2821
-1.34735 0 12.421
12.4955 0 -29.2035
19.658 0 5.57682
-7.0598 0 -17.9837
-14.7054 0 -22.4471
6.44377 0 8.18556
-13.993 0 39.3858
-12.0898 0 -12.6757
6.86574 0 -16.0197
-3.21231 0 2.38696
-76.3684 0 33.1783
84.4641 0 -147.479
-8.82463 0 27.0371
31.4036 0 -18.1701
-4.24021 0 -4.22936
12.7384 0 -0.906707
34.3443 0 -4.56514
14.4298 0 8.53125
0.544143 0 1.10479
13.3884 0 13.2372
2.54898 0 20.5286
-13.4166 0 1.75533
1.58716 0 -6.47901
7.47905 0 0.51163
-7.47266 0 0.517642
-1.59279 0 -6.48325
13.5028 0 1.69853
-2.56288 0 20.5241
-13.5622 0 13.3003
-0.543465 0 1.10388
-14.4269 0 8.52679
-34.4222 0 -4.5912
-12.7385 0 -0.908163
4.24135 0 -4.22831
-31.4098 0 -18.1687
8.82812 0 27.0371
-84.4657 0 -147.488
76.3698 0 33.1801
3.21429 0 2.38468
-6.85851 0 -16.0079
12.0898 0 -12.6769
13.9931 0 39.3859
-6.44431 0 8.18535
14.7056 0 -22.4468
7.05968 0 -17.9837
-19.6581 0 5.57668
-12.4952 0 -29.2036
1.34739 0 12.4211
-17.4254 0 55.2822
7.58356 0 -11.4061
-53.7172 0 17.9014
47.5952 0 -14.6296
-6.03433 0 -5.39225
-7.92526 0 -53.4103
15.146 0 43.707
-9.84653 0 -12.1463
-12.3188 0 5.98259
-11.2207 0 -11.3377
9.91625 0 -1.53281
8.15561 0 1.81487
-25.0652 0 12.7785
15.6527 0 -17.9817
4.65266 0 10.8799
3.80732 0 9.30716
-2.81766 0 33.3864
-7.93984 0 -19.3241
-8.01554 0 -6.77728
33.1663 0 0.845764
-62.8489 0 18.0356
9.36088 0 -40.2711
20.2965 0 2.39017
2.48081 0 124.947
-2.94513 0 -6.27824
-3.50741 0 14.4285
-33.4674 0 -10.4855
26.0401 0 54.0111
-39.1072 0 4.82397
13.353 0 -5.17973
9.78159 0 6.1336
3.86548 0 -3.19765
7.28435 0 -16.2921
-9.58532 0 2.16104
-15.2758 0 11.0955
-177.066 0 -19.7629
177.065 0 -19.7643
15.2838 0 11.1049
9.58384 0 2.17422
-7.29319 0 -16.3137
-3.67531 0 -3.16151
-9.76957 0 6.14279
-13.3715 0 -5.17608
39.1903 0 4.84731
-26.0264 0 53.9897
33.4655 0 -10.4726
3.50234 0 14.4279
2.94539 0 -6.2784
-2.48037 0 124.953
-20.2865 0 2.39025
-9.35883 0 -40.2618
62.8307 0 18.0323
-33.1601 0 0.844988
8.01579 0 -6.77697
7.93796 0 -19.3243
2.81917 0 33.3865
-3.80765 0 9.30735
-4.65266 0 10.8802
-15.6529 0 -17.9819
25.0651 0 12.7782
-8.15562 0 1.81483
-9.91623 0 -1.5329
11.2207 0 -11.3377
12.3188 0 5.98258
9.84658 0 -12.1463
-15.146 0 43.707
-65.9567 0 -19.9379
77.4869 0 54.7202
5.32458 0 8.71732
21.8486 0 -35.5456
14.3399 0 15.9111
-72.3982 0 -27.0831
37.3111 0 21.8535
1.45422 0 -0.715887
-6.72912 0 -18.7544
7.43809 0 -0.637291
24.8374 0 -3.96322
18.5287 0 6.83837
-2.61934 0 9.36916
2.07036 0 16.5685
34.651 0 20.8405
9.41474 0 -1.99706
-9.19324 0 -0.369115
24.702 0 -5.7269
4.01564 0 -6.9147
-40.429 0 -0.28089
16.75 0 -5.04074
-27.7824 0 -0.319508
5.05451 0 -22.3229
-14.7755 0 8.10665
8.94944 0 -21.9456
-13.5413 0 21.729
-11.9587 0 8.27938
-3.23807 0 -48.6005
-4.64714 0 2.35626
2.36383 0 -0.311215
-2.36383 0 -0.311195
4.55618 0 2.29498
3.26838 0 -48.5727
11.9558 0 8.26885
13.552 0 21.7641
-8.93996 0 -21.9092
14.7624 0 8.04839
-5.00368 0 -22.3998
27.7632 0 -0.301392
-16.7459 0 -5.04015
40.4467 0 -0.284125
-4.01844 0 -6.91684
-24.713 0 -5.7287
9.19839 0 -0.364825
-9.42893 0 -1.99398
-34.648 0 20.8366
-2.06725 0 16.5751
2.61862 0 9.36939
-18.5288 0 6.83649
-24.8366 0 -3.9627
-7.43808 0 -0.637931
6.72888 0 -18.7533
-1.4542 0 -0.715859
-37.3111 0 21.8537
72.3983 0 -27.0827
-14.3399 0 15.9111
-21.8487 0 -35.5455
-5.32467 0 8.71736
-77.4869 0 54.7202
65.9567 0 -19.9379
22.2055 0 -29.9693
-3.32914 0 -18.2373
-2.81215 0 -4.17761
-16.4861 0 14.7255
12.539 0 -1.05691
6.13878 0 -5.58809
-22.9307 0 27.195
0.10814 0 -7.29659
4.6082 0 -9.84284
-32.6887 0 -32.4459
-10.2947 0 3.92089
-6.10849 0 0.379503
-15.7452 0 5.7945
-5.49462 0 -16.4724
5.56673 0 -1.48141
-9.79682 0 16.7639
-11.0785 0 -0.444746
-19.6845 0 26.283
24.2777 0 -19.9166
2.45221 0 9.01256
56.159 0 28.539
-5.3759 0 4.30479
53.0066 0 -74.0386
14.9167 0 15.7021
22.3381 0 13.7277
8.73205 0 -8.23774
-16.7729 0 -111.684
-84.7358 0 -61.9494
-1.68495 0 -1.02464
-2.73627 0 18.4703
2.74095 0 18.4655
1.68645 0 -1.02156
84.8026 0 -61.8254
16.7149 0 -111.584
-8.73357 0 -8.23551
-22.388 0 13.7943
-14.9063 0 15.7053
-53.0074 0 -74.1145
5.3629 0 4.32955
-56.1749 0 28.5191
-2.45839 0 9.00838
-24.2992 0 -19.9442
19.7041 0 26.3095
11.0903 0 -0.441032
9.79878 0 16.7457
-5.56692 0 -1.48285
5.49652 0 -16.4747
15.7451 0 5.79449
6.10941 0 0.380499
10.2955 0 3.92143
32.688 0 -32.4496
-4.60832 0 -9.84278
-0.108395 0 -7.29632
22.9308 0 27.1945
-6.13877 0 -5.58802
-12.5392 0 -1.05758
16.4862 0 14.7256
2.81211 0 -4.17759
3.32915 0 -18.2372
-22.2055 0 -29.9693
21.2408 0 20.5525
-7.67895 0 14.041
2.72262 0 1.55345
-55.6749 0 -0.798406
42.8395 0 42.6199
3.98931 0 5.94991
-14.4118 0 -45.4685
-5.35442 0 -27.1614
-15.7887 0 14.1491
38.9285 0 30.7065
11.2972 0 21.6289
-1.55309 0 -12.1337
-53.9907 0 -101.549
11.4674 0 23.4384
-40.9757 0 34.2954
-21.9298 0 -43.6308
10.936 0 9.07725
20.8319 0 -1.15041
-56.7282 0 -27.8667
8.45636 0 1.16115
-6.37411 0 2.41336
-17.2347 0 -15.0599
5.80377 0 1.90636
11.0995 0 -21.2276
-11.1733 0 12.4197
32.2582 0 103.399
-6.65047 0 56.3221
34.0151 0 12.6856
-15.7985 0 28.489
28.2751 0 -0.972474
-28.0822 0 -0.74688
15.792 0 28.2909
-34.1594 0 12.7245
6.61913 0 56.1558
-32.1805 0 103.331
11.1789 0 12.453
-11.0959 0 -21.2161
-5.81641 0 1.92331
17.2057 0 -15.0622
6.38362 0 2.41591
-8.44629 0 1.16104
56.7234 0 -27.84
-20.8403 0 -1.15186
-11.0103 0 9.08451
22.0056 0 -43.6568
40.9649 0 34.2939
-11.4691 0 23.4408
54.0068 0 -101.551
1.55245 0 -12.1325
-11.2969 0 21.6286
-38.9276 0 30.7082
15.7878 0 14.1502
5.35403 0 -27.1611
14.412 0 -45.4695
-3.98932 0 5.94994
-42.8397 0 42.6202
55.6753 0 -0.79825
-2.72259 0 1.55345
7.67896 0 14.0409
-21.2408 0 20.5525
2.41467 0 -3.38851
16.4791 0 7.12622
6.89091 0 -64.8983
-3.20324 0 -2.91304
-78.0388 0 -55.7183
69.769 0 66.1863
42.4562 0 -41.8695
10.8591 0 31.5466
9.1009 0 26.896
-15.6777 0 -6.72442
8.82011 0 -12.8147
0.453219 0 0.360193
-7.16632 0 -0.651749
-16.6904 0 -15.6489
25.6349 0 11.4196
2.85084 0 6.67538
66.3619 0 -20.4348
-64.7686 0 -18.5802
-17.3966 0 32.8878
37.2258 0 -26.0622
-20.6021 0 -17.0161
-10.5212 0 9.86967
-10.4035 0 73.1948
-8.26697 0 16.9473
-8.3742 0 -5.77666
-7.21331 0 1.37993
-7.61434 0 4.07125
12.8286 0 5.96578
32.2467 0 -111.39
-17.4913 0 1.17774
17.3847 0 1.06404
-32.333 0 -111.609
-12.9223 0 5.93068
7.61373 0 4.08597
7.20785 0 1.35574
8.37717 0 -5.78137
8.26117 0 16.9474
10.4329 0 73.2077
10.5238 0 9.86804
20.6354 0 -17.0279
-37.232 0 -26.0526
17.427 0 32.8667
64.81 0 -18.5743
-66.3576 0 -20.4048
-2.84964 0 6.67603
-25.6433 0 11.4086
16.6999 0 -15.6486
7.16646 0 -0.651988
-0.453127 0 0.360195
-8.81978 0 -12.8126
15.6773 0 -6.72344
-9.10055 0 26.895
-10.8594 0 31.5475
-42.4551 0 -41.8682
-69.7688 0 66.1859
78.0385 0 -55.7179
3.2033 0 -2.91302
-6.89094 0 -64.8981
-16.479 0 7.12631
-2.41466 0 -3.38855
24.874 0 -0.391613
-22.5591 0 -13.0088
5.40481 0 53.1373
4.06743 0 -9.32441
-3.10853 0 -9.49815
-51.453 0 40.6145
8.41785 0 0.407877
1.90003 0 -23.7188
-30.5649 0 -17.5309
51.3517 0 28.2662
-25.6481 0 15.6553
20.0242 0 -10.1913
-3.07199 0 16.3622
-27.9096 0 42.1197
69.4707 0 63.4979
0.585103 0 -6.77387
4.81425 0 13.343
-1.13524 0 -6.06058
63.5824 0 23.1056
32.0172 0 17.0581
14.1603 0 0.143777
-17.2433 0 20.9684
-6.74672 0 -3.50598
12.1464 0 -9.84314
-7.16644 0 11.5406
2.95178 0 -10.7168
-4.62586 0 -7.52977
-49.7662 0 13.9183
17.3642 0 74.7715
-14.0357 0 2.34031
14.169 0 2.41084
-17.4413 0 74.9841
49.9364 0 14.0007
4.2815 0 -7.37287
-2.72993 0 -10.6623
7.17281 0 11.5433
-12.1338 0 -9.86785
6.73186 0 -3.50145
17.265 0 20.9874
-14.2041 0 0.150245
-31.9752 0 17.1384
-63.676 0 23.0339
1.12612 0 -6.04954
-4.81699 0 13.3282
-0.583972 0 -6.77551
-69.4923 0 63.506
27.9135 0 42.1262
3.07016 0 16.3607
-20.0228 0 -10.1963
25.6499 0 15.6535
-51.3515 0 28.2646
30.5642 0 -17.5304
-1.90009 0 -23.7189
-8.41756 0 0.407725
51.4519 0 40.6135
3.10864 0 -9.49812
-4.06746 0 -9.32444
-5.40501 0 53.1371
22.5592 0 -13.0084
-24.874 0 -0.391609
23.3112 0 -5.74889
10.0718 0 -39.5
-6.21427 0 20.5744
-18.6935 0 -26.1024
14.7328 0 -11.2384
16.8971 0 -5.25214
3.48957 0 -0.0805855
-21.7712 0 21.843
-10.1874 0 2.06921
-7.56579 0 1.73855
10.0424 0 -10.0362
-1.61732 0 -9.65915
-55.7925 0 -19.4379
53.3755 0 -8.28148
-30.6026 0 -64.1947
2.9519 0 12.6693
-12.7941 0 9.11025
-9.76616 0 14.9772
-4.49217 0 -19.5936
17.5316 0 6.0093
-32.5177 0 3.47749
-10.221 0 -9.48677
6.57807 0 -8.16438
-33.2014 0 -12.5095
5.14419 0 -7.79207
-8.69762 0 8.30326
27.4967 0 -13.5596
11.9545 0 -3.50632
14.1053 0 13.5132
-5.25175 0 1.37139
5.12905 0 1.28984
-14.2359 0 13.3675
-11.8779 0 -3.56342
-27.6772 0 -13.9178
8.67961 0 8.29833
-4.95404 0 -7.8607
33.0792 0 -12.4634
-6.57243 0 -8.17329
10.2069 0 -9.47708
32.4062 0 3.39103
-17.5144 0 6.01765
4.50584 0 -19.6047
9.76502 0 14.9772
12.7908 0 9.10641
-2.96259 0 12.6673
30.5447 0 -64.0678
-53.3732 0 -8.27945
55.7909 0 -19.4473
1.61817 0 -9.65659
-10.0443 0 -10.0358
7.56759 0 1.73905
10.1876 0 2.06886
21.7713 0 21.843
-3.48938 0 -0.0804911
-16.8972 0 -5.25206
-14.7328 0 -11.2382
18.6935 0 -26.1021
6.21437 0 20.574
-10.0719 0 -39.4999
-23.3111 0 -5.7489
11.3115 0 -19.3309
21.1704 0 7.96928
10.4773 0 41.9735
-43.1393 0 -13.0267
26.852 0 31.0908
-0.73963 0 2.96145
20.6084 0 -1.33479
3.30822 0 -0.0546288
-11.05 0 -40.9439
14.945 0 5.87392
5.38311 0 12.4599
-37.9416 0 -19.4105
44.5078 0 27.2163
-9.61257 0 -6.93589
19.7041 0 -145.112
-10.9271 0 1.59146
-28.0096 0 -38.9009
-0.139703 0 8.58493
-10.7165 0 -2.84643
-16.4769 0 -6.5035
4.9419 0 5.95454
-4.38993 0 -8.52694
32.2981 0 18.5322
7.50979 0 -6.85309
1.09758 0 -16.3832
23.1391 0 17.9663
-29.0268 0 11.0906
-16.4782 0 2.11995
-10.4884 0 -14.4748
6.69564 0 -3.24498
-6.68027 0 -3.58605
10.3881 0 -14.4166
16.9103 0 2.45212
29.3037 0 10.9121
-23.1695 0 18.014
-1.22016 0 -16.5488
-7.50732 0 -6.83548
-32.2072 0 18.5363
4.37901 0 -8.5259
-4.91607 0 5.98762
16.4772 0 -6.51018
10.7271 0 -2.84352
0.159926 0 8.60026
27.9866 0 -38.8785
10.9267 0 1.59123
-19.5383 0 -145.363
9.59768 0 -6.93016
-44.5099 0 27.2249
37.9432 0 -19.4107
-5.38537 0 12.4582
-14.9455 0 5.8737
11.0501 0 -40.944
-3.30822 0 -0.0547275
-20.6079 0 -1.33505
0.73938 0 2.96162
-26.8518 0 31.0905
43.1391 0 -13.027
-10.4775 0 41.9737
-21.1702 0 7.96918
-11.3116 0 -19.3304
-11.3438 0 -3.23179
19.2234 0 15.6857
-16.0151 0 -13.4919
-20.1127 0 -6.29177
-9.6676 0 -12.0134
-14.3552 0 -2.31056
2.05313 0 -32.9754
-15.6907 0 3.31491
36.7832 0 -34.551
-4.85205 0 4.83435
-3.12643 0 -49.9404
-8.40914 0 1.3627
12.5615 0 20.6863
-9.16124 0 -27.1525
-59.7854 0 138.413
81.3054 0 76.5144
-10.5255 0 10.0275
45.3353 0 14.5884
8.25072 0 -1.15867
6.35135 0 2.78495
-78.4502 0 7.29408
59.7987 0 -8.24613
-21.4798 0 -71.7943
8.17957 0 -5.70351
-16.2953 0 10.4792
37.4048 0 -7.57823
-17.966 0 -1.79422
-31.0055 0 2.90436
-10.5394 0 9.4551
19.3521 0 -13.399
-19.0648 0 -12.648
10.4798 0 9.34668
30.3358 0 3.38459
17.9709 0 -1.78628
-37.3668 0 -7.53818
16.4409 0 10.573
-8.20635 0 -5.71563
21.5367 0 -71.793
-59.9132 0 -8.26725
78.5198 0 7.30734
-6.31284 0 2.7775
-8.26648 0 -1.1622
-45.3271 0 14.5621
10.5258 0 10.0194
-81.4206 0 76.6214
59.8172 0 138.417
9.16332 0 -27.154
-12.56 0 20.6881
8.40707 0 1.36293
3.12909 0 -49.9388
4.85131 0 4.83514
-36.7844 0 -34.5519
15.6911 0 3.31501
-2.05177 0 -32.9763
14.3556 0 -2.30988
9.6664 0 -12.0141
20.1128 0 -6.29161
16.0155 0 -13.4923
-19.2231 0 15.686
11.3436 0 -3.23156
8.33714 0 -6.84982
-1.14295 0 23.6808
-51.0241 0 -21.6983
43.0699 0 10.3401
22.0443 0 -29.9787
-20.9871 0 9.69691
-20.8469 0 -26.3317
41.8266 0 30.3685
-55.4359 0 -33.0516
20.2636 0 26.9743
-24.0279 0 40.5097
6.58277 0 -11.3587
40.0736 0 -61.7931
-6.10203 0 -20.8193
5.82005 0 28.2393
9.74436 0 -13.5859
-0.12345 0 -3.21744
-16.3621 0 13.3743
13.6413 0 -13.7872
0.312561 0 0.496586
11.838 0 -1.57149
-17.784 0 -0.342377
15.4698 0 10.3673
2.78967 0 -21.2619
-6.48868 0 17.4481
11.7205 0 4.88704
-27.8573 0 25.5916
31.0895 0 -21.03
44.0186 0 7.50003
-24.0676 0 -6.62378
23.7073 0 -6.8847
-43.5169 0 7.24448
-31.086 0 -21.0457
27.8624 0 25.6056
-11.7375 0 4.87557
6.43069 0 17.4661
-2.78722 0 -21.3066
-15.5232 0 10.4413
17.8047 0 -0.326824
-11.8282 0 -1.63331
-0.310132 0 0.489275
-13.6431 0 -13.795
16.3581 0 13.3727
0.112501 0 -3.21245
-9.75438 0 -13.5843
-5.8161 0 28.2454
6.10451 0 -20.8214
-40.0759 0 -61.7962
-6.58917 0 -11.3535
24.029 0 40.5071
-20.2646 0 26.9743
55.436 0 -33.0526
-41.8282 0 30.37
20.8474 0 -26.3317
20.9875 0 9.69628
-22.0446 0 -29.9773
-43.0702 0 10.3404
51.0244 0 -21.6986
1.14286 0 23.6802
-8.33693 0 -6.85037
18.835 0 2.25155
7.58734 0 22.6146
-36.5893 0 -24.8359
14.6089 0 44.365
-167.463 0 3.25415
176.537 0 36.5169
-29.2856 0 16.233
28.6128 0 3.22003
0.0345286 0 -0.300745
6.71649 0 3.67848
-3.88883 0 -2.32435
-34.2702 0 93.0597
8.60483 0 16.3359
-24.7584 0 38.7058
-12.3483 0 -12.1505
-18.3491 0 1.43508
-9.40644 0 34.3588
-10.6062 0 -2.61425
4.11707 0 -8.05559
-14.8296 0 -52.3749
8.2799 0 19.1734
-22.4388 0 -25.0374
-2.30676 0 4.20172
3.16031 0 10.8861
8.33934 0 59.3055
-9.04322 0 3.85051
-16.9366 0 1.98724
-1.17255 0 -0.611181
3.25745 0 12.5922
14.82 0 -4.79806
-14.88 0 -4.7647
-3.27572 0 12.5976
1.17253 0 -0.631333
16.94 0 1.98058
9.03348 0 3.86559
-8.3564 0 59.3535
-3.15184 0 10.8648
2.28813 0 4.22712
22.3476 0 -24.9096
-8.28722 0 19.1678
14.8148 0 -52.4382
-4.11853 0 -8.03236
10.658 0 -2.65331
9.51367 0 34.4589
18.3511 0 1.44843
12.3496 0 -12.1495
24.7241 0 38.6832
-8.60116 0 16.3371
34.2793 0 93.0572
3.88747 0 -2.3231
-6.71636 0 3.67788
-0.0344395 0 -0.300883
-28.6128 0 3.22108
29.2874 0 16.2338
-176.538 0 36.5166
167.464 0 3.25309
-14.6091 0 44.3652
36.5892 0 -24.8352
-7.58751 0 22.6146
-18.8349 0 2.25164
-24.613 0 16.1715
41.7986 0 -11.6595
-7.91998 0 4.59812
21.6822 0 23.0381
-74.7478 0 -19.2211
51.0973 0 12.6565
10.3843 0 2.85851
-30.429 0 37.9036
31.1766 0 -2.84156
-12.418 0 7.04284
12.8533 0 -10.838
-148.608 0 -16.9483
76.7168 0 -19.8591
79.8176 0 -24.1287
-8.76635 0 0.547275
-12.2256 0 -1.50746
35.8052 0 -22.3146
6.11596 0 -24.4981
53.8513 0 -1.69728
-6.40069 0 40.5298
-28.1069 0 -16.7567
32.7716 0 19.6955
-73.7331 0 -81.0354
-3.91339 0 9.06265
-5.75482 0 14.6314
28.0981 0 -23.8224
6.63594 0 -13.5693
4.75619 0 9.71498
-20.0869 0 -27.318
10.1094 0 18.0673
-9.98868 0 17.9723
20.266 0 -27.8286
-4.72539 0 9.66394
-6.59808 0 -13.5769
-28.2316 0 -23.8747
5.90289 0 14.5723
3.89865 0 9.05402
73.8032 0 -81.1467
-32.67 0 19.6715
28.0985 0 -16.6648
6.39087 0 40.5672
-54.0065 0 -1.77926
-6.11257 0 -24.4797
-35.7751 0 -22.2886
12.2244 0 -1.50967