# vtk DataFile Version 3.0
SiWiRVisFile
ASCII
DATASET UNSTRUCTURED_GRID
POINTS 1600 DOUBLE
77.0271 100 73.3022
77.8061 100 74.1855
78.69 100 74.7373
80.4764 100 74.374
81.6323 100 75.0279
82.6713 100 75.5047
84.3778 100 75.0752
85.5252 100 75.3668
86.8008 100 75.8515
85.3215 100 74.2466
90.5545 100 74.9252
91.4507 100 74.3225
89.8288 100 74.1945
89.4613 100 72.767
89.0837 100 71.4808
92.566 100 66.2112
93.1923 100 67.1576
95.1277 100 65.5261
93.2024 100 62.4641
97.3411 100 64.1447
104.704 100 50.5049
104.298 100 53.5475
105.111 100 52.6716
106.28 100 51.6135
105.121 100 51.5055
107.834 100 51.8814
109.768 100 47.4671
111.024 100 47.332
110.468 100 48.3974
111.592 100 48.3666
112.9 100 48.3691
114.027 100 48.3972
113.471 100 47.3343
114.723 100 47.4652
116.659 100 51.8808
119.371 100 51.5056
118.212 100 51.6136
119.381 100 52.6716
120.195 100 53.5476
119.788 100 50.5048
127.14 100 64.1458
131.29 100 62.4641
129.368 100 65.5269
131.301 100 67.1588
131.926 100 66.2121
135.409 100 71.48
135.028 100 72.7651
134.667 100 74.1993
133.043 100 74.3212
133.937 100 74.926
139.171 100 74.2466
137.692 100 75.8516
138.967 100 75.3668
140.115 100 75.0753
141.821 100 75.5048
142.86 100 75.028
144.016 100 74.3739
145.802 100 74.7373
146.686 100 74.1855
147.465 100 73.3022
76.8347 100 74.7544
77.8116 100 75.3066
79.6555 100 75.1785
80.687 100 75.6784
81.7273 100 76.2083
83.6925 100 75.9828
84.7545 100 76.3709
85.8322 100 76.5487
86.8934 100 76.9025
88.1618 100 77.249
89.2309 100 76.8738
92.5035 100 73.9056
90.6972 100 73.3134
91.4588 100 71.6079
92.3866 100 69.4219
90.2693 100 71.8243
94.0888 100 66.4467
96.1575 100 64.7317
97.2952 100 65.4712
99.4864 100 64.901
104.141 100 52.0533
99.1552 100 57.6479
105.305 100 58.8667
110.303 100 51.1472
105.794 100 50.5537
108.459 100 52.732
108.946 100 51.3856
109.323 100 50.4187
108.753 100 48.2315
111.143 100 49.2957
113.35 100 49.2955
115.737 100 48.2293
115.166 100 50.4195
115.546 100 51.3854
116.033 100 52.7306
118.699 100 50.5537
114.187 100 51.1529
119.159 100 58.8363
125.337 100 57.6479
120.351 100 52.0533
125.013 100 64.8983
127.189 100 65.4778
128.334 100 64.7369
130.407 100 66.4491
134.224 100 71.8249
132.109 100 69.4181
133.041 100 71.6091
133.799 100 73.3126
131.988 100 73.9062
135.261 100 76.8772
136.331 100 77.2495
137.599 100 76.9025
138.66 100 76.5486
139.738 100 76.3707
140.8 100 75.9828
142.765 100 76.2084
143.805 100 75.6785
144.837 100 75.1786
146.681 100 75.3066
147.658 100 74.7545
76.8588 100 75.9953
77.8176 100 76.4418
78.7892 100 75.9338
79.78 100 76.3696
80.8632 100 76.8783
82.773 100 76.747
83.9269 100 77.166
85.0681 100 77.457
86.1309 100 77.7425
87.3346 100 78.0039
88.339 100 78.2168
89.4899 100 78.2099
91.2369 100 77.5285
91.7448 100 73.0909
93.1402 100 70.4825
93.9142 100 69.5455
94.2213 100 67.5278
95.2258 100 66.7976
96.1567 100 66.2168
98.5316 100 64.2429
99.4934 100 63.6031
103.585 100 60.3195
105.692 100 59.8902
106.648 100 59.3486
106.366 100 56.4266
106.993 100 58.2575
107.175 100 57.0409
105.956 100 57.9493
110.441 100 50.071
111.687 100 50.4429
112.806 100 50.441
114.046 100 50.0732
118.566 100 57.9455
117.3 100 57.0269
117.499 100 58.252
118.136 100 56.4453
117.854 100 59.3273
118.793 100 59.879
120.882 100 60.3273
125.001 100 63.6063
125.961 100 64.2343
128.345 100 66.2084
129.269 100 66.8018
130.267 100 67.5267
130.582 100 69.5471
131.358 100 70.4836
132.749 100 73.0934
133.259 100 77.5263
135.002 100 78.2112
136.153 100 78.2171
137.158 100 78.0039
138.362 100 77.7428
139.424 100 77.4568
140.565 100 77.1659
141.719 100 76.747
143.629 100 76.8783
144.712 100 76.3696
145.703 100 75.9338
146.675 100 76.4417
147.634 100 75.9953
76.8247 100 77.0738
77.9315 100 77.5181
78.8775 100 77.0974
79.9764 100 77.4798
81.8269 100 77.3056
82.9924 100 77.8671
84.0349 100 78.1983
85.4118 100 78.5879
86.4667 100 78.8048
87.6225 100 79.0697
88.7401 100 79.182
89.8512 100 79.2074
90.7526 100 78.5203
92.9649 100 72.5382
92.537 100 71.3991
94.3953 100 70.6365
95.3042 100 69.4763
94.8402 100 68.4916
95.7058 100 67.7626
96.5746 100 67.2325
97.6815 100 66.9408
100.71 100 65.3444
104.575 100 59.97
105.203 100 62.2632
105.536 100 60.9056
106.754 100 60.6382
108.976 100 60.2098
110.076 100 60.0252
108.044 100 57.9257
111.435 100 51.5566
113.067 100 51.555
116.459 100 57.9424
114.417 100 60.0129
115.511 100 60.1731
117.75 100 60.6671
118.949 100 60.8932
119.278 100 62.2656
119.899 100 59.9782
123.791 100 65.3382
126.805 100 66.9441
127.917 100 67.2173
128.778 100 67.7665
129.644 100 68.4895
129.188 100 69.4794
130.094 100 70.6354
131.958 100 71.4003
131.534 100 72.5378
133.739 100 78.5188
134.641 100 79.2076
135.752 100 79.1822
136.87 100 79.0696
138.026 100 78.8049
139.081 100 78.5877
140.458 100 78.1979
141.5 100 77.867
142.665 100 77.3057
144.516 100 77.4798
145.615 100 77.0975
146.561 100 77.5181
147.668 100 77.0738
76.7754 100 78.1356
77.7904 100 78.6771
78.8418 100 78.166
80.9514 100 77.9898
82.0373 100 78.44
83.096 100 78.9243
84.3487 100 79.2156
85.3226 100 79.6477
86.7974 100 79.8627
88.1286 100 80.0698
88.9366 100 81.1957
90.8118 100 79.7611
92.1175 100 78.4114
94.4569 100 72.6506
93.7147 100 71.5759
96.0337 100 70.993
96.2786 100 69.9258
96.2389 100 68.8281
97.2577 100 68.0516
98.3876 100 67.8824
98.7441 100 65.855
102.886 100 65.8879
106.344 100 62.2693
107.465 100 61.4155
107.647 100 60.0623
108.562 100 61.7867
109.498 100 61.2386
110.586 100 61.9777
107.74 100 59.0043
111.605 100 52.7812
112.887 100 52.7776
116.758 100 59.0436
113.906 100 61.9795
114.957 100 61.2361
115.917 100 61.7576
116.829 100 60.0875
117.056 100 61.4195
118.161 100 62.3199
121.616 100 65.865
125.769 100 65.8382
126.109 100 67.8932
127.236 100 68.0419
128.235 100 68.8251
128.2 100 69.9375
128.488 100 70.9818
130.79 100 71.5686
130.052 100 72.6518
132.383 100 78.41
133.682 100 79.7615
135.557 100 81.1958
136.363 100 80.0703
137.695 100 79.8639
139.17 100 79.6471
140.143 100 79.2154
141.397 100 78.9244
142.455 100 78.44
143.541 100 77.9898
145.651 100 78.166
146.702 100 78.6772
147.717 100 78.1356
76.8477 100 79.2119
77.8026 100 79.7881
78.9849 100 79.4856
79.8229 100 78.7959
80.9885 100 79.1108
82.0377 100 79.5352
82.9557 100 80.3057
84.4508 100 80.4511
85.6104 100 80.6767
86.7019 100 80.9574
87.7662 100 81.1331
90.0325 100 80.5293
91.9022 100 80.2827
92.3363 100 76.9798
93.4005 100 76.352
95.0513 100 71.5764
97.1108 100 71.8307
97.2927 100 70.5348
97.2916 100 69.3653
99.2068 100 68.5979
99.3663 100 66.9908
101.679 100 66.1221
103.685 100 64.9734
105.123 100 64.7378
105.469 100 63.4049
107.466 100 62.6465
108.49 100 62.8875
109.449 100 62.454
111.346 100 62.7628
111.446 100 60.9191
113.039 100 60.9177
113.214 100 62.8023
115.002 100 62.4439
115.925 100 62.922
117.021 100 62.6791
118.953 100 63.3956
119.366 100 64.7379
120.787 100 64.9923
122.825 100 66.117
125.126 100 66.9996
125.275 100 68.6004
127.207 100 69.3526
127.166 100 70.4988
127.352 100 71.8184
129.454 100 71.5828
131.092 100 76.3519
132.154 100 76.9821
132.59 100 80.2848
134.461 100 80.5292
136.727 100 81.1332
137.791 100 80.9587
138.882 100 80.6763
140.042 100 80.4506
141.537 100 80.3056
142.455 100 79.5352
143.504 100 79.1108
144.669 100 78.7959
145.508 100 79.4855
146.69 100 79.7882
147.645 100 79.2119
76.5162 100 80.1916
77.4306 100 80.8188
79.211 100 80.8719
80.0142 100 79.9046
81.157 100 80.1876
81.7814 100 81.0059
83.7668 100 81.2441
84.9023 100 81.5354
85.9644 100 81.8593
87.0772 100 82.0935
88.3821 100 82.1077
91.0468 100 80.9592
92.1011 100 81.4151
93.0537 100 77.794
95.5901 100 74.1058
96.1644 100 72.4127
97.4865 100 73.1338
98.2435 100 71.053
98.3551 100 69.6552
100.203 100 67.7793
100.353 100 66.5243
102.652 100 67.1372
104.553 100 65.6276
106.932 100 64.1749
108.4 100 64.097
109.321 100 63.5489
110.184 100 65.5895
110.394 100 63.306
109.27 100 66.4328
110.562 100 67.4707
113.957 100 67.141
115.071 100 66.5636
114.129 100 63.2911
114.394 100 65.5837
115.163 100 63.6425
116.17 100 64.0324
117.839 100 64.0653
119.91 100 65.6568
121.849 100 67.1118
124.126 100 66.5486
124.282 100 67.7741
126.144 100 69.7027
126.247 100 71.083
127.011 100 73.1373
128.302 100 72.3903
128.916 100 74.1067
131.434 100 77.7954
132.397 100 81.418
133.449 100 80.9566
136.108 100 82.1068
137.417 100 82.0941
138.529 100 81.8598
139.59 100 81.5341
140.726 100 81.2432
142.711 100 81.006
143.335 100 80.1876
144.478 100 79.9045
145.281 100 80.8718
147.062 100 80.8188
147.976 100 80.1915
76.4452 100 81.4421
77.3596 100 82.0694
78.3281 100 81.4341
79.3753 100 81.8889
80.3059 100 81.0616
80.5154 100 82.4583
82.9453 100 82.0682
84.0118 100 82.3566
85.0935 100 82.738
86.2833 100 82.9243
87.5173 100 83.0136
88.5666 100 83.1837
89.8975 100 81.7211
89.6848 100 82.8449
90.2782 100 83.7153
93.2454 100 80.332
96.8312 100 74.0156
98.0831 100 72.236
99.927 100 70.7462
99.427 100 69.7337
100.385 100 69.0438
101.296 100 67.2617
103.829 100 66.5485
106.148 100 65.1149
107.652 100 65.0293
109.383 100 64.878
108.226 100 65.8709
107.825 100 67.9602
109.24 100 67.5939
110.882 100 68.7648
113.673 100 68.6742
115.332 100 67.8187
116.561 100 67.7556
116.178 100 65.711
115.189 100 64.8703
116.878 100 64.9503
118.283 100 65.0714
120.664 100 66.5343
123.191 100 67.2742
124.129 100 69.056
125.078 100 69.7302
124.57 100 70.7463
126.41 100 72.2682
127.67 100 74.0202
131.239 100 80.3234
134.215 100 83.7149
134.808 100 82.8439
134.595 100 81.7206
135.925 100 83.1834
136.976 100 83.0137
138.21 100 82.9248
139.4 100 82.7364
140.482 100 82.3565
141.547 100 82.0678
143.977 100 82.4584
144.187 100 81.0615
145.117 100 81.8891
146.164 100 81.4341
147.133 100 82.0692
148.047 100 81.442
76.3133 100 82.4789
77.2992 100 83.2302
78.3926 100 82.4678
79.483 100 83.1551
80.5185 100 83.6563
80.0709 100 85.1509
81.7649 100 83.1732
82.8785 100 83.1211
84.6578 100 83.8598
84.0093 100 84.8753
85.7659 100 83.8474
86.9658 100 84.0702
88.0485 100 84.1774
89.2517 100 84.065
91.372 100 83.6945
92.4902 100 79.4244
97.2418 100 75.1106
97.9202 100 74.1744
99.6614 100 72.0612
100.807 100 71.5299
[...]
POINT_DATA 1600
SCALARS mass double
LOOKUP_TABLE default
1
1
1
1
1
1
1
1
1
1
1
1
1
1
1
1
1
1
1
1
1
1
1
1
1
1
1
1
1
1
1
1
1
1
1
1
1
1
1
1
1
1
1
1
1
1
1
1
1
1
1
1
1
1
1
1
1
1
1
1
1
1
1
1
1
1
1
1
1
1
1
1
1
1
1
1
1
1
1
1
1
1
1
1
1
1
1
1
1
1
1
1
1
1
1
1
1
1
1
1
1
1
1
1
1
1
1
1
1
1
1
1
1
1
1
1
1
1
1
1
1
1
1
1
1
1
1
1
1
1
1
1
1
1
1
1
1
1
1
1
1
1
1
1
1
1
1
1
1
1
1
1
1
1
1
1
1
1
1
1
1
1
1
1
1
1
1
1
1
1
1
1
1
1
1
1
1
1
1
1
1
1
1
1
1
1
1
1
1
1
1
1
1
1
1
1
1
1
1
1
1
1
1
1
1
1
1
1
1
1
1
1
1
1
1
1
1
1
1
1
1
1
1
1
1
1
1
1
1
1
1
1
1
1
1
1
1
1
1
1
1
1
1
1
1
1
1
1
1
1
1
1
1
1
1
1
1
1
1
1
1
1
1
1
1
1
1
1
1
1
1
1
1
1
1
1
1
1
1
1
1
1
1
1
1
1
1
1
1
1
1
1
1
1
1
1
1
1
1
1
1
1
1
1
1
1
1
1
1
1
1
1
1
1
1
1
1
1
1
1
1
1
1
1
1
1
1
1
1
1
1
1
1
1
1
1
1
1
1
1
1
1
1
1
1
1
1
1
1
1
1
1
1
1
1
1
1
1
1
1
1
1
1
1
1
1
1
1
1
1
1
1
1
1
1
1
1
1
1
1
1
1
1
1
1
1
1
1
1
1
1
1
1
1
1
1
1
1
1
1
1
1
1
1
1
1
1
1
1
1
1
1
1
1
1
1
1
1
1
1
1
1
1
1
1
1
1
1
1
1
1
1
1
1
1
1
1
1
1
1
1
1
1
1
1
1
1
1
1
1
1
1
1
1
1
1
1
1
1
1
1
1
1
1
1
1
1
1
1
1
1
1
1
1
1
1
1
1
1
1
1
1
1
1
1
1
1
1
1
1
1
1
1
1
1
1
1
1
1
1
1
1
1
1
1
1
1
1
1
1
1
1
1
1
1
1
1
1
1
1
1
1
1
1
1
1
1
1
1
1
1
1
1
1
1
1
1
1
1
1
1
1
1
1
1
1
1
1
1
1
1
1
1
1
1
1
1
1
1
1
1
1
1
1
1
1
1
1
1
1
1
1
1
1
1
1
1
1
1
1
1
1
1
1
1
1
1
1
1
1
1
1
1
1
1
1
1
1
1
1
1
1
1
1
1
1
1
1
1
1
1
1
1
1
1
1
1
1
1
1
1
1
1
1
1
1
1
1
1
1
1
1
1
1
1
1
1
1
1
1
1
1
1
1
1
1
1
1
1
1
1
1
1
1
1
1
1
1
1
1
1
1
1
1
1
1
1
1
1
1
1
1
1
1
1
1
1
1
1
1
1
1
1
1
1
1
1
1
1
1
1
1
1
1
1
1
1
1
1
1
1
1
1
1
1
1
1
1
1
1
1
1
1
1
1
1
1
1
1
1
1
1
1
1
1
1
1
1
1
1
1
1
1
1
1
1
1
1
1
1
1
1
1
1
1
1
1
1
1
1
1
1
1
1
1
1
1
1
1
1
1
1
1
1
1
1
1
1
1
1
1
1
1
1
1
1
1
1
1
1
1
1
1
1
1
1
1
1
1
1
1
1
1
1
1
1
1
1
1
1
1
1
1
1
1
1
1
1
1
1
1
1
1
1
1
1
1
1
1
1
1
1
1
1
1
1
1
1
1
1
1
1
1
1
1
1
1
1
1
1
1
1
1
1
1
1
1
1
1
1
1
1
1
1
1
1
1
1
1
1
1
1
1
1
1
1
1
1
1
1
1
1
1
1
1
1
1
1
1
1
1
1
1
1
1
1
1
1
1
1
1
1
1
1
1
1
1
1
1
1
1
1
1
1
1
1
1
1
1
1
1
1
1
1
1
1
1
1
1
1
1
1
1
1
1
1
1
1
1
1
1
1
1
1
1
1
1
1
1
1
1
1
1
1
1
1
1
1
1
1
1
1
1
1
1
1
1
1
1
1
1
1
1
1
1
1
1
1
1
1
1
1
1
1
1
1
1
1
1
1
1
1
1
1
1
1
1
1
1
1
1
1
1
1
1
1
1
1
1
1
1
1
1
1
1
1
1
1
1
1
1
1
1
1
1
1
1
1
1
1
1
1
1
1
1
1
1
1
1
1
1
1
1
1
1
1
1
1
1
1
1
1
1
1
1
1
1
1
1
1
1
1
1
1
1
1
1
1
1
1
1
1
1
1
1
1
1
1
1
1
1
1
1
1
1
1
1
1
1
1
1
1
1
1
1
1
1
1
1
1
1
1
1
1
1
1
1
1
1
1
1
1
1
1
1
1
1
1
1
1
1
1
1
1
1
1
1
1
1
1
1
1
1
1
1
1
1
1
1
1
1
1
1
1
1
1
1
1
1
1
1
1
1
1
1
1
1
1
1
1
1
1
1
1
1
1
1
1
1
1
1
1
1
1
1
1
1
1
1
1
1
1
1
1
1
1
1
1
1
1
1
1
1
1
1
1
1
1
1
1
1
1
1
1
1
1
1
1
1
1
1
1
1
1
1
1
1
1
1
1
1
1
1
1
1
1
1
1
1
1
1
1
1
1
1
1
1
1
1
1
1
1
1
1
1
1
1
1
1
1
1
1
1
1
1
1
1
1
1
1
1
1
1
1
1
1
1
1
1
1
1
1
1
1
1
1
1
1
1
1
1
1
1
1
1
1
1
1
1
1
1
1
1
1
1
1
1
1
1
1
1
1
1
1
1
1
1
1
1
1
1
1
1
1
1
1
1
1
1
1
1
1
1
1
1
1
1
1
1
1
1
1
1
1
1
1
1
1
1
1
1
1
1
1
1
1
1
1
1
1
1
1
1
1
1
1
1
1
1
1
1
1
1
1
1
1
1
1
1
1
1
1
1
1
1
1
1
1
1
1
1
1
1
1
1
1
1
1
1
1
1
1
1
1
1
1
1
1
1
1
1
1
1
1
1
1
1
1
1
1
1
1
1
1
1
1
1
1
1
1
1
1
1
1
1
1
1
1
1
1
1
1
1
1
1
1
1
1
1
1
1
1
1
1
1
1
1
1
1
1
1
1
1
1
1
1
1
1
1
1
1
1
1
1
1
1
1
1
1
1
1
1
1
1
1
1
1
1
1
1
1
1
1
1
1
1
1
1
1
1
1
1
1
1
1
1
1
1
1
1
1
1
1
1
1
1
1
1
1
1
1
1
1
1
1
1
1
1
1
1
1
1
1
1
1
1
1
1
1
1
1
1
1
1
1
1
1
1
1
1
1
1
1
1
1
1
1
1
1
1
1
1
1
1
1
1
1
1
1
1
1
1
1
1
1
1
1
1
1
1
1
1
1
1
1
1
1
1
1
1
1
1
1
1
1
1
1
1
1
1
1
1
1
1
1
1
1
1
1
1
1
1
1
1
1
1
1
1
1
1
VECTORS force double
6.02064 0 14.5521
-49.4139 0 -31.7455
53.2829 0 2.17316
4.83062 0 21.5046
-9.36569 0 12.4027
-8.74477 0 17.7179
17.4036 0 9.02808
-6.75369 0 19.6389
-21.3323 0 -31.9752
-8.17371 0 13.0738
32.1796 0 52.8298
9.82017 0 -32.7024
-35.8059 0 -61.8138
16.2409 0 -8.55115
14.7469 0 13.212
7.11864 0 3.77694
-6.82563 0 -8.7782
13.8626 0 18.3534
0 0 0
1.77195 0 16.7009
-18.4738 0 -10.9471
6.94098 0 -14.07
-9.18935 0 -7.48577
-11.7826 0 -5.2253
18.6941 0 17.4228
-15.0142 0 -35.6394
8.21116 0 12.9389
-11.678 0 21.11
-0.978063 0 -12.7973
33.6121 0 -64.0766
-34.3467 0 -66.5776
0.328859 0 -12.5275
11.6235 0 21.0685
-8.17296 0 12.9246
15.0899 0 -35.6836
-18.8314 0 17.4883
11.8214 0 -5.26001
9.17793 0 -7.46588
-6.9434 0 -14.0707
18.9463 0 -11.084
-1.27911 0 16.3021
0 0 0
-13.8639 0 18.2577
5.52273 0 -7.70644
-7.10664 0 3.67202
-14.7768 0 13.2239
-16.2776 0 -8.56605
35.6342 0 -61.0443
-10.2323 0 -32.9435
-31.8904 0 52.2705
8.17001 0 13.0883
21.3433 0 -32.0851
6.75236 0 19.6273
-17.4062 0 9.02959
8.72807 0 17.7224
9.3563 0 12.4059
-4.82731 0 21.5012
-53.2447 0 2.14819
49.3933 0 -31.7319
-6.02189 0 14.5522
4.15512 0 6.34326
-37.328 0 39.4072
33.3337 0 27.6894
3.38039 0 4.20033
14.8209 0 -27.3265
-2.6956 0 16.8297
-12.2735 0 -13.7072
10.9329 0 4.33857
15.0651 0 54.0393
-35.7588 0 -160.165
-2.52284 0 14.3971
0.494097 0 -4.09822
-33.6296 0 17.0045
-16.9791 0 10.9981
11.8731 0 10.6518
-5.57659 0 9.22957
7.49655 0 -12.3667
8.83664 0 13.7729
-7.87214 0 -4.22466
-2.6851 0 -0.672607
7.69123 0 5.49782
0 0 0
-0.0788113 0 1.67874
-4.87961 0 11.32
10.7716 0 15.7727
24.3108 0 22.0635
-23.5657 0 61.148
38.4877 0 -47.2994
12.3058 0 -6.40762
9.08608 0 33.2996
-9.62685 0 32.9014
-12.2155 0 -6.55624
-38.9908 0 -47.4654
23.8119 0 61.3874
-24.4106 0 22.0825
-11.2202 0 15.8303
5.33735 0 8.8738
10.6399 0 26.7608
0 0 0
-7.61275 0 5.52685
2.47606 0 -1.03609
6.86912 0 -3.89418
-8.34558 0 14.066
-7.62562 0 -14.093
5.79399 0 9.28434
-11.7978 0 10.6124
14.8627 0 10.5605
32.9291 0 16.5974
-0.12713 0 -4.18806
2.46565 0 14.4696
35.8773 0 -160.196
-14.9842 0 54.1934
-10.8915 0 4.35437
12.1486 0 -13.7015
2.77555 0 16.7987
-14.8494 0 -27.364
-3.37555 0 4.19802
-33.3557 0 27.6983
37.3309 0 39.4099
-4.16091 0 6.34333
-20.5012 0 -49.9384
24.9766 0 9.92752
-9.86054 0 -20.0157
21.5728 0 4.1893
-34.6037 0 -40.0651
17.5663 0 -16.9292
-12.5174 0 -65.8675
-16.8133 0 2.80079
19.983 0 -14.8386
-93.6525 0 -23.9057
89.376 0 127.82
-17.5759 0 -28.2982
21.5969 0 -1.04706
26.0675 0 -6.8098
23.1464 0 -12.3232
6.27775 0 11.9871
30.5659 0 15.1701
-29.9213 0 -15.5863
3.44805 0 -25.5608
0.0463259 0 4.85885
-5.99175 0 15.9459
-37.6823 0 13.7257
18.5602 0 -49.366
15.3226 0 1.49842
-69.8078 0 -47.1144
-17.6177 0 -23.683
71.8445 0 77.1596
-8.2497 0 -6.05644
-25.6557 0 23.2387
-19.9019 0 -7.29032
20.1915 0 -6.88092
27.7608 0 28.3093
-18.1968 0 -23.0201
-71.3756 0 72.0436
23.2876 0 -14.065
69.289 0 -41.9889
-14.6738 0 0.585689
-15.4936 0 -53.1721
45.0987 0 16.5014
5.00149 0 15.3594
0.464023 0 5.75559
-2.51668 0 -26.6444
28.4931 0 -13.1544
-29.2473 0 16.2071
-6.0063 0 12.2724
-23.3951 0 -12.9847
-25.4064 0 -6.38162
-21.7644 0 -1.45127
17.9119 0 -29.4044
-88.2878 0 127.236
92.5855 0 -23.5792
-20.2142 0 -15.0588
16.8727 0 2.78894
12.5815 0 -66.2668
-17.609 0 -16.9714
34.6362 0 -40.0174
-21.5927 0 4.19373
9.88458 0 -20.0265
-24.9739 0 9.9347
20.4968 0 -49.9442
21.272 0 -11.9402
-72.3915 0 47.5106
57.0413 0 -65.6329
-43.3939 0 20.7917
41.3323 0 35.8889
-15.4642 0 -49.6098
15.7232 0 31.2359
-38.8178 0 -35.911
30.8119 0 1.49604
-13.7672 0 7.92235
32.0498 0 18.1713
12.156 0 36.2325
-5.54598 0 17.2719
-4.21258 0 -10.6191
18.4277 0 18.4132
-10.9055 0 -4.49424
-21.7032 0 6.7596
-4.08509 0 -12.6404
-61.2771 0 70.7627
55.5723 0 -57.8176
-1.00396 0 9.43995
-5.70601 0 16.3372
52.6094 0 -15.5775
9.34799 0 0.042512
-4.8831 0 69.3212
-72.8754 0 -24.7954
-13.3433 0 7.97833
0.63215 0 11.6028
-3.14012 0 -10.1112
-3.36292 0 0.932207
2.5777 0 0.672072
-3.76237 0 -7.71542
-3.61139 0 11.4232
14.947 0 12.1256
83.7615 0 -60.7691
6.08041 0 69.9638
-4.43781 0 0.774526
-57.0979 0 -16.8193
5.51663 0 16.3471
0.940083 0 8.62761
-51.9065 0 -53.612
55.4618 0 65.8888
4.76083 0 -12.1449
10.5626 0 8.67311
11.1721 0 -4.45819
-15.3781 0 19.1212
4.01332 0 -10.5025
5.75265 0 17.9388
-12.395 0 36.8574
-32.1488 0 18.3009
13.7558 0 8.36
-30.928 0 1.8672
38.8941 0 -36.0962
-15.88 0 31.9554
15.5031 0 -49.4958
-41.2836 0 35.9021
43.3512 0 20.787
-57.0397 0 -65.6438
72.4063 0 47.5034
-21.2736 0 -11.9224
14.42 0 9.24279
23.4388 0 -24.1139
9.07725 0 39.1706
6.48207 0 16.3359
-14.6255 0 -10.3668
3.86828 0 37.1017
-18.4718 0 19.4201
20.7519 0 19.8593
5.81475 0 -1.67192
-16.2096 0 22.2009
1.01668 0 -40.1306
25.982 0 -2.09316
-18.263 0 -27.9183
-3.3493 0 -20.1655
-2.47013 0 -0.675789
7.83851 0 18.465
37.5305 0 10.0999
4.17824 0 -22.9813
13.301 0 29.0186
-12.7204 0 -20.3973
5.3189 0 0.72127
1.37047 0 9.39401
6.60641 0 -1.48006
29.1978 0 37.9789
21.4105 0 17.5764
-28.8646 0 -1.41518
22.5713 0 -3.56355
-25.4075 0 -7.24713
22.3955 0 -1.39306
10.4937 0 -13.5159
-10.4195 0 -13.4827
-12.5512 0 -35.4525
30.6191 0 -15.9751
-17.5424 0 -4.87343
20.2638 0 14.6959
-7.73723 0 41.6979
-58.131 0 65.146
-11.2594 0 3.07892
-2.62704 0 11.3476
-3.91925 0 -0.234378
9.60458 0 -18.6282
-10.0844 0 28.559
0.768053 0 -16.6948
-29.8235 0 -5.65808
-3.59673 0 23.2749
1.24076 0 -0.683088
3.83315 0 -20.0382
17.5701 0 -31.4333
-26.502 0 -2.17332
-2.2343 0 -41.7283
16.3509 0 22.1998
-5.80439 0 -2.07124
-21.2056 0 20.6386
18.9678 0 18.98
-3.88625 0 36.977
14.6224 0 -10.3783
-6.44323 0 16.3519
-9.09606 0 39.2028
-23.4759 0 -24.1229
-14.4278 0 9.21894
6.9634 0 -29.8831
9.97615 0 -2.57787
-31.7085 0 5.65706
23.9467 0 -26.1778
-9.94386 0 -14.153
22.3363 0 8.14254
-2.01412 0 -1.45801
43.6624 0 -42.275
8.94882 0 28.3736
-21.5297 0 20.5049
22.4404 0 14.9913
-27.5042 0 9.84946
-20.1576 0 34.9795
-11.4498 0 -4.22015
-12.0362 0 12.6446
-7.58839 0 7.05575
-28.8751 0 -29.2786
-27.5945 0 -12.7051
-21.3161 0 -5.38631
24.7893 0 16.6779
-21.0995 0 9.45108
-3.63395 0 10.3013
-11.5601 0 3.8114
6.75347 0 -37.3546
3.86896 0 -2.75889
-41.1947 0 -24.1677
-23.2154 0 23.1627
60.1312 0 -28.4035
15.8214 0 1.71901
-5.82635 0 7.15401
5.8855 0 6.96322
-62.1881 0 -11.8224
-60.6796 0 -22.9749
78.885 0 -10.2926
4.59089 0 -12.9618
-11.7619 0 -1.85465
-16.5827 0 -25.0468
6.26005 0 7.65889
3.58867 0 11.1171
19.1044 0 8.46233
-23.1357 0 12.1396
11.7591 0 -6.2064
19.8079 0 -10.7577
34.9624 0 -35.2526
8.60894 0 7.34114
11.9953 0 12.6631
11.1572 0 -3.69549
21.104 0 37.0635
29.0567 0 9.43097
-22.3825 0 15.0042
21.4281 0 20.3755
-8.76026 0 28.0143
-43.6614 0 -42.2789
2.00732 0 -1.45739
-22.3222 0 8.14243
9.94428 0 -14.1672
-23.9153 0 -26.1485
31.647 0 5.63998
-9.98849 0 -2.64772
-6.93951 0 -29.8918
-12.7856 0 63.2845
-16.3898 0 19.3492
27.1877 0 -106.29
17.083 0 14.6205
-63.3915 0 -30.4749
45.9542 0 46.1872
-32.0604 0 36.4776
-23.0124 0 9.28314
0.155727 0 -10.2359
-29.0967 0 -86.8757
-30.2813 0 16.2699
-7.70219 0 5.29905
-3.19317 0 -12.5145
0.539698 0 -8.18304
13.4233 0 -3.59782
-6.10035 0 -4.52007
-1.64189 0 -0.176971
10.4846 0 14.6973
-16.3374 0 4.2822
0.890846 0 -1.44418
27.0303 0 -2.0287
0.795108 0 -7.84194
-3.40285 0 53.5017
-4.1775 0 3.89683
-23.6611 0 15.8537
36.0974 0 24.6499
7.91888 0 24.908
-10.5379 0 -13.8727
1.17506 0 -7.34554
-14.6482 0 13.6576
16.1821 0 -0.603295
-6.15167 0 1.62302
48.099 0 4.86379
-12.4023 0 29.2391
-38.1227 0 26.6403
16.1763 0 15.1008
-3.97661 0 -8.88195
0.495683 0 42.6449
-0.0362329 0 -7.63635
-24.7015 0 -1.46062
-0.971317 0 -0.902393
31.6523 0 6.90673
-5.80676 0 14.2707
14.8108 0 10.2872
6.13002 0 -3.87564
-13.2193 0 -3.40652
1.80327 0 -7.2739
3.39835 0 -12.2984
6.35453 0 5.93131
31.0503 0 18.1072
28.8092 0 -86.7977
0.242537 0 -10.3076
22.9276 0 9.43493
31.99 0 36.5733
-45.9334 0 46.177
63.3586 0 -30.454
-17.0422 0 14.598
-27.2313 0 -105.882
16.454 0 19.377
12.7941 0 63.3377
12.6989 0 -65.4148
6.99927 0 -6.38695
-33.8393 0 -21.6277
21.5677 0 75.0753
6.36847 0 -3.63534
-15.7002 0 7.09314
-2.25764 0 -46.8578
13.6819 0 -1.40372
14.1233 0 -1.01038
26.9357 0 -23.1568
0.507615 0 77.7429
38.8177 0 11.7636
12.0405 0 -4.07266
-38.0325 0 -26.7868
26.3879 0 47.3891
-128.914 0 -61.6566
-20.8852 0 12.0834
53.7727 0 -7.75704
4.61342 0 12.0641
27.2571 0 -8.42195
-18.2852 0 -9.38645
-13.8927 0 -24.6966
1.2449 0 5.00911
30.6275 0 -1.96965
-47.8101 0 -67.58
-33.9407 0 -27.517
48.449 0 70.1062
10.5751 0 9.45973
3.23187 0 9.43648
-14.5334 0 5.04718
-48.0064 0 3.95508
-16.2926 0 -35.4192
-16.4434 0 19.7878
-49.8157 0 41.7444
38.9364 0 -28.9323
55.8462 0 -48.2066
-3.22409 0 23.1743
1.02054 0 5.20995
14.6722 0 -27.7264
17.1216 0 -10.1687
-33.5548 0 -5.30088
-2.75048 0 10.7737
-71.6984 0 -15.3518
16.2444 0 12.6344
132.617 0 -59.923
-27.5515 0 46.9888
37.8583 0 -26.4231
-11.8526 0 -4.3013
-37.5592 0 11.0987
-1.24452 0 77.9132
-26.4383 0 -22.6719
-14.1344 0 -0.968759
-13.8166 0 -1.54033
2.48591 0 -46.735
15.6786 0 7.09699
-6.37293 0 -3.6376
-21.3875 0 74.6953
33.7451 0 -21.4986
-7.10672 0 -6.36395
-12.6323 0 -65.4057
6.26291 0 58.6976
5.35388 0 -3.58102
13.1095 0 53.4301
8.97085 0 -44.0389
-2.14355 0 -7.80223
4.76147 0 -6.48295
-14.3559 0 4.8812
5.9044 0 36.6046
-8.26054 0 -6.69995
45.3959 0 -36.9447
-6.7448 0 42.3668
-19.0131 0 -15.3326
20.9813 0 10.7409
-28.6786 0 4.28288
10.5842 0 -2.455
52.3746 0 -25.0386
7.628 0 -13.7499
24.0891 0 10.9683
2.67537 0 -4.65781
-65.8362 0 -26.5604
12.7138 0 10.4232
-1.79751 0 -21.0441
-13.6164 0 -14.7582
-10.1049 0 4.41641
-0.715768 0 11.4499
-0.339426 0 -18.3553
12.5394 0 17.5828
-20.566 0 10.9797
-25.2383 0 -9.42642
20.6921 0 -2.68308
49.6596 0 0.348464
29.8719 0 -21.7243
17.0931 0 39.7355
-6.73684 0 16.8285
3.66001 0 -20.4333
0.601585 0 11.0628
7.02615 0 -9.94004
14.4448 0 -15.5206
0.72119 0 -21.3163
-14.6434 0 12.4792
60.1276 0 -23.0519
-2.57151 0 -4.38159
-22.7918 0 13.0328
-5.3115 0 -14.7556
-53.6992 0 -24.4519
-10.617 0 -2.65347
31.9209 0 2.32808
-20.826 0 10.5958
18.1643 0 -15.5439
6.74606 0 42.0104
-44.3346 0 -35.6869
7.44905 0 -5.75465
-5.89341 0 36.3804
14.2889 0 5.10362
-5.04418 0 -6.64472
2.11411 0 -7.81391
-9.0019 0 -44.2624
-13.172 0 53.4239
-5.33454 0 -3.6189
-6.21465 0 58.6655
1.99055 0 -12.9243
13.1942 0 -13.394
-71.0027 0 -29.1989
5.9233 0 -11.8285
62.1227 0 83.9311
-1.00891 0 -18.2834
-1.49522 0 -18.3509
6.98857 0 18.5621
-60.2852 0 14.0017
10.5244 0 -24.5074
32.8249 0 0.6137
-7.61781 0 14.6668
10.1181 0 -25.3577
7.87995 0 -72.1246
-23.5088 0 -42.9892
101.92 0 71.5338
15.849 0 -15.8936
-14.4855 0 12.9558
-16.6468 0 -1.93197
11.5055 0 -23.0406
9.70377 0 17.1898
65.97 0 9.40088
-8.10252 0 -2.38399
2.43145 0 8.59876
-63.2156 0 -0.428502
-1.16605 0 -18.9467
-50.5964 0 -30.9434
-12.5342 0 -22.1928
-9.04825 0 -14.5264
14.7667 0 -5.40128
-25.9647 0 3.28757
10.4797 0 -8.3804
4.10792 0 -14.0715
30.1205 0 -23.0935
-17.6291 0 -27.5538
134.172 0 1.91111
2.15001 0 8.82197
8.71165 0 -0.0946083
-62.1174 0 5.69514
-21.3669 0 20.6068
-15.7947 0 -25.2214
20.9845 0 -6.78432
13.5818 0 13.1812
8.33859 0 -13.8539
-99.8006 0 72.0085
25.1401 0 -32.1078
-7.73197 0 -68.4156
-9.01332 0 -24.2693
7.59917 0 14.9806
-31.4384 0 1.29721
-6.96963 0 -23.3258
58.9943 0 12.2157
-6.65663 0 18.7259
1.50873 0 -18.3794
1.02671 0 -18.6578
-62.284 0 84.3749
-5.65736 0 -11.815
71.2131 0 -29.4922
-13.2496 0 -13.4148
-1.96752 0 -12.9365
1.1083 0 7.3036
0.981727 0 4.40071
9.78305 0 9.90148
3.59673 0 -11.6609
-56.7883 0 13.0904
14.6431 0 -101.285
41.0826 0 48.0051
-0.594113 0 -9.84174
-10.1705 0 -5.46325
43.0047 0 -90.7935
29.6738 0 -9.98837
-8.52011 0 4.93316
-28.5091 0 80.1484
22.4101 0 44.2777
-4.46425 0 19.2885
28.5746 0 -14.1453
-9.81008 0 2.50969
-7.81522 0 7.56772
18.8362 0 10.2333
-9.75217 0 9.62111
-55.7887 0 39.9423
77.6765 0 -18.7445
-1.41895 0 -26.9523
-3.2765 0 15.1697
-16.9114 0 -22.9843
-48.0764 0 -83.2429
11.9948 0 11.391
29.3418 0 11.006
20.0811 0 22.176
-0.881821 0 -1.17531
6.50678 0 -5.40065
-21.7623 0 27.9618
-5.36249 0 4.54274
-21.8124 0 -38.0965
-122.285 0 20.2491
20.2832 0 -28.7257
0.137905 0 13.5658
0.670386 0 -14.2144
-90.5886 0 -42.6131
77.8315 0 54.1302
9.5017 0 14.2684
-23.7269 0 6.19361
-2.09577 0 12.3951
-7.17002 0 -5.40937
-30.9178 0 -13.5708
4.61545 0 19.0332
-25.278 0 35.7749
30.1471 0 77.3988
11.1996 0 -0.356811
-31.2936 0 -9.40412
-42.4371 0 -87.6203
10.7221 0 -5.8322
0.538405 0 -9.45739
-41.1311 0 48.1149
-13.9569 0 -100.205
56.4756 0 13.0613
-3.57368 0 -11.6431
-9.73007 0 9.81359
-0.984776 0 4.4081
-1.09891 0 7.31316
19.0429 0 1.06267
2.53431 0 -1.3476
-3.46884 0 -13.2414
-47.3539 0 51.4182
44.3605 0 -47.5264
-10.6356 0 93.2679
3.14235 0 -9.88571
-6.88173 0 7.67764
22.1008 0 -8.70511
-34.8336 0 63.5849
-13.167 0 14.6117
18.8156 0 -15.0999
-4.71089 0 4.03316
-3.36597 0 -1.85715
-16.8896 0 -14.015
0.941768 0 -14.9379
-17.0462 0 3.63038
-13.9888 0 -15.0527
-103.738 0 45.2151
115.654 0 26.0176
0.621672 0 -70.3508
-6.62936 0 -5.79521
-38.0254 0 7.33278
38.6224 0 -8.86013
-5.85843 0 3.99328
-6.73887 0 -11.6336
-14.0969 0 -30.2441
-34.9195 0 6.50089
31.9435 0 21.7058
-11.7476 0 0.342944
12.3006 0 -0.566072
-6.23392 0 23.905
34.4626 0 7.93546
11.4331 0 -24.8326
7.47149 0 -13.1983
9.09912 0 1.09203
-40.7024 0 -7.5069
38.6169 0 11.9219
-6.60753 0 -3.22138
-2.8941 0 -87.1326
-114.909 0 28.9132
112.423 0 57.0787
12.0827 0 -11.3991
16.8564 0 3.19704
-1.91465 0 -15.0158
17.1515 0 -13.0896
2.78408 0 -1.71452
-0.243964 0 8.45194
-17.378 0 -14.691
10.4793 0 13.5932
31.1484 0 61.8427
-20.8936 0 -8.06651
6.83388 0 7.19114
-3.23428 0 -10.0347
10.516 0 92.3035
-44.5698 0 -47.6387
47.5554 0 51.6104
3.02207 0 -13.4158
-2.57892 0 -1.3514
-19.0387 0 1.05699
12.7243 0 -34.6969
-2.3133 0 -16.5534
-0.609575 0 -6.07786
7.13699 0 9.10492
13.2037 0 21.1728
-7.17176 0 -7.16546
-40.1123 0 -17.8924
8.99025 0 -3.28005
38.4093 0 -2.563
-12.2017 0 -4.79416
-47.3786 0 65.7452
6.98391 0 12.6858
-4.30452 0 -14.9419
-3.09874 0 -10.3907
-2.66623 0 -22.3736
1.02417 0 19.9366
-18.9876 0 0.987908
21.7724 0 -3.95732
34.193 0 -72.3697
8.39455 0 3.58261
3.35797 0 13.8611
-54.6643 0 -15.9294
7.55611 0 -12.7871
-211.048 0 4.60315
23.2443 0 23.0579
9.66243 0 32.8844
-5.85793 0 9.2164
116.365 0 79.6293
14.8234 0 -26.9225
4.79733 0 -0.187076
-1.91682 0 -6.07235
-17.4889 0 -31.1014
3.59204 0 33.7125
10.3429 0 9.97016
-16.4053 0 29.0843
-26.1068 0 28.264
183.685 0 -8.69326
-5.00515 0 -15.7902
48.4147 0 -16.6061
-7.11161 0 8.60942
-6.40103 0 1.56837
-34.1915 0 -42.1802
-19.9738 0 -3.73768
16.6855 0 0.96327
-0.784968 0 18.4077
4.84299 0 -20.1581
10.2346 0 -17.3666
4.55662 0 -13.138
-5.01424 0 10.5264
44.9568 0 63.7294
11.9996 0 -4.79941
-40.8921 0 -3.369
-9.14472 0 -3.08483
41.2787 0 -22.6041
7.4252 0 -7.39884
-12.8871 0 20.9088
-6.80827 0 9.57568
0.370212 0 -6.18257
2.30487 0 -16.5326
-12.7442 0 -34.1859
-0.615915 0 52.5948
-16.6218 0 -11.1561
-11.2316 0 6.22008
54.0676 0 -12.6406
3.52874 0 1.64699
-5.27576 0 -0.0165948
1.59601 0 3.75383
-51.5389 0 3.04682
24.888 0 -24.4061
4.36734 0 -10.3473
10.1405 0 -7.40064
-11.9115 0 -21.7822
19.3798 0 6.92273
-11.0518 0 1.64793
0.908957 0 9.73642
-55.9244 0 -25.5719
-14.6495 0 13.4986
5.62723 0 17.521
9.44032 0 -6.34646
-30.1201 0 -8.48845
4.77283 0 20.0267
9.15503 0 8.4765
14.9701 0 2.85658
-41.8356 0 -8.48353
46.2522 0 -54.2012
-23.8377 0 -35.739
-8.69636 0 -4.09305
3.02565 0 -8.62771
3.62657 0 0.92032
15.057 0 5.70074
-15.6725 0 8.41787
-1.61891 0 -3.43316
-14.3077 0 -6.74053
7.42269 0 -5.09298
23.9432 0 -19.1337
-31.8757 0 -39.2377
20.535 0 11.0987
-14.9108 0 3.43838
-3.30691 0 -9.3864
-5.97561 0 20.5171
30.2213 0 -7.81388
-1.17359 0 -34.2029
0.889783 0 28.3693
6.97934 0 -4.25714
45.5121 0 -19.8963
-2.95906 0 8.57268
11.7511 0 -4.79538
-21.6025 0 4.98064
12.1409 0 -23.7021
-10.1891 0 -6.53016
-4.59703 0 -11.2205
-25.2588 0 -23.8453
51.5505 0 2.94971
-0.780762 0 3.65075
7.84756 0 -0.335299
-3.40265 0 1.56307
-53.5408 0 -12.8402
10.3477 0 6.05225
16.7645 0 -12.1799
0.841144 0 52.9156
23.9198 0 -7.94837
-12.8676 0 36.9421
-3.99833 0 11.1956
-7.50329 0 -5.51463
-90.9844 0 -20.2288
77.6209 0 2.99251
10.16 0 58.4231
44.2768 0 -4.18628
-3.94892 0 -17.5221
7.20782 0 47.8533
10.8215 0 7.79864
-5.36748 0 17.3688
-1.65219 0 7.266
6.38413 0 2.93306
-15.2737 0 -78.7257
-18.8504 0 7.38668
10.5249 0 -4.99751
17.9271 0 32.8461
9.63371 0 -11.1513
0.589259 0 69.8582
1.59851 0 4.89218
-38.4407 0 -39.4348
10.5307 0 -0.827447
7.01937 0 61.7254
130.891 0 -54.432
13.152 0 -22.0576
29.2231 0 -7.2872
7.55575 0 10.5827
-8.4029 0 -4.96709
-12.0099 0 6.26151
13.9374 0 8.60911
5.89954 0 -7.36779
5.91679 0 12.9751
-18.8974 0 -5.71142
-18.4291 0 -24.9964
-103.631 0 -65.0211
14.4229 0 57.827
-9.08298 0 -0.321847
61.7533 0 -67.7283
-1.67811 0 22.4248
-0.0286042 0 40.0308
-20.078 0 21.8222
3.54856 0 24.4165
-14.5313 0 -1.52327
10.2054 0 -0.853257
31.5347 0 -36.0308
-1.53945 0 13.7531