# vtk DataFile Version 3.0
SiWiRVisFile
ASCII
DATASET UNSTRUCTURED_GRID
POINTS 1600 DOUBLE
78.637 100 75.732
79.732 100 75.9642
80.7268 100 76.2374
82.4573 100 75.6849
83.6408 100 76.067
84.6711 100 76.1361
85.7805 100 76.3069
86.805 100 76.5541
87.9581 100 76.8379
89.0583 100 77.0772
90.184 100 77.3438
91.2665 100 77.3845
91.7146 100 76.3482
92.6485 100 75.7763
93.6933 100 74.8698
95.3893 100 74.3774
96.4155 100 73.7265
97.6425 100 74.072
97.8819 100 72.9911
100.02 100 73.8855
103.757 100 65.9554
103.115 100 68.7026
103.282 100 67.3069
104.576 100 67.3271
105.4 100 66.4827
106.473 100 66.2051
108.626 100 66.7188
109.649 100 66.081
110.695 100 65.9363
111.696 100 65.39
112.796 100 65.39
113.797 100 65.9363
114.844 100 66.081
115.866 100 66.7188
118.02 100 66.2051
119.092 100 66.4827
119.917 100 67.3271
121.21 100 67.3069
121.378 100 68.7026
120.735 100 65.9554
124.473 100 73.8855
126.61 100 72.9911
126.85 100 74.072
128.077 100 73.7265
129.103 100 74.3774
130.799 100 74.8698
131.844 100 75.7763
132.778 100 76.3482
133.226 100 77.3845
134.308 100 77.3438
135.434 100 77.0772
136.534 100 76.8379
137.687 100 76.5541
138.712 100 76.3069
139.821 100 76.1361
140.852 100 76.067
142.035 100 75.6849
143.766 100 76.2374
144.76 100 75.9642
145.855 100 75.732
78.9223 100 76.743
79.9781 100 77.0248
81.7869 100 76.5459
82.9039 100 76.8662
83.9638 100 77.2334
85.0638 100 77.2063
86.0602 100 77.4125
87.1645 100 77.6017
88.3086 100 77.8427
89.4639 100 78.1085
90.5846 100 78.3715
91.6334 100 78.5689
92.3294 100 77.413
93.22 100 76.7204
94.4549 100 76.5267
94.9626 100 75.4542
96.3308 100 74.8593
98.7941 100 73.7275
99.8567 100 74.8886
101.16 100 73.7036
102.165 100 68.0922
101.45 100 72.057
103.963 100 71.2588
107.453 100 68.9161
105.781 100 67.7219
106.865 100 67.4102
107.931 100 67.6356
109.352 100 67.544
110.366 100 66.9608
111.719 100 66.4342
112.774 100 66.4342
114.127 100 66.9608
115.14 100 67.544
116.561 100 67.6356
117.627 100 67.4102
118.711 100 67.7219
117.039 100 68.9161
120.529 100 71.2588
123.042 100 72.057
122.328 100 68.0922
123.332 100 73.7036
124.636 100 74.8886
125.698 100 73.7275
128.162 100 74.8593
129.53 100 75.4542
130.037 100 76.5267
131.272 100 76.7204
132.163 100 77.413
132.859 100 78.5689
133.908 100 78.3715
135.028 100 78.1085
136.184 100 77.8427
137.328 100 77.6017
138.432 100 77.4125
139.429 100 77.2063
140.529 100 77.2334
141.588 100 76.8662
142.706 100 76.5459
144.514 100 77.0248
145.57 100 76.743
79.1208 100 77.7586
80.2336 100 78.0966
81.015 100 77.3674
82.0964 100 77.7179
83.1507 100 77.9682
84.2476 100 78.2733
85.346 100 78.2451
86.3972 100 78.4311
87.5663 100 78.6132
88.6625 100 78.904
89.7599 100 79.1957
90.8934 100 79.3471
91.9329 100 79.5786
92.6358 100 78.4575
94.4328 100 77.6083
95.5085 100 77.1093
96.043 100 75.9386
97.222 100 75.5178
98.3058 100 75.2428
101.025 100 74.8674
102.109 100 73.1044
102.966 100 72.1938
104.918 100 72.3839
106.061 100 72.1238
107.002 100 71.7042
108.223 100 72.6805
109.29 100 73.1082
109.035 100 71.5563
110.745 100 68.2773
111.452 100 67.4078
113.04 100 67.4078
113.748 100 68.2773
115.458 100 71.5563
115.203 100 73.1082
116.269 100 72.6805
117.49 100 71.7042
118.432 100 72.1238
119.575 100 72.3839
121.527 100 72.1938
122.384 100 73.1044
123.467 100 74.8674
126.187 100 75.2428
127.27 100 75.5178
128.449 100 75.9386
128.984 100 77.1093
130.06 100 77.6083
131.857 100 78.4575
132.559 100 79.5786
133.599 100 79.3471
134.733 100 79.1957
135.83 100 78.904
136.926 100 78.6132
138.095 100 78.4311
139.146 100 78.2451
140.245 100 78.2733
141.342 100 77.9682
142.396 100 77.7179
143.477 100 77.3674
144.259 100 78.0966
145.372 100 77.7586
79.3818 100 78.8079
80.515 100 79.1209
81.3329 100 78.4825
82.3694 100 78.8398
83.4383 100 79.1291
84.6721 100 79.3435
85.778 100 79.3708
86.8253 100 79.4038
88.0705 100 79.7111
89.0228 100 80.2689
90.1464 100 80.3485
91.3323 100 80.4197
92.3363 100 80.6087
93.1555 100 79.3506
93.6915 100 78.3888
95.69 100 78.147
96.6336 100 77.4093
97.1826 100 76.6052
98.1756 100 76.3331
99.4778 100 76.204
100.57 100 75.9238
102.047 100 74.2548
103.449 100 73.6162
104.658 100 73.5793
105.86 100 73.436
106.968 100 72.7705
108.575 100 73.8254
110.044 100 74.0239
110.441 100 71.8607
111.72 100 69.0825
112.772 100 69.0825
114.052 100 71.8607
114.448 100 74.0239
115.918 100 73.8254
117.524 100 72.7705
118.633 100 73.436
119.834 100 73.5793
121.043 100 73.6162
122.445 100 74.2548
123.923 100 75.9238
125.015 100 76.204
126.317 100 76.3331
127.31 100 76.6052
127.859 100 77.4093
128.802 100 78.147
130.801 100 78.3888
131.337 100 79.3506
132.156 100 80.6087
133.16 100 80.4197
134.346 100 80.3485
135.47 100 80.2689
136.422 100 79.7111
137.667 100 79.4038
138.714 100 79.3708
139.82 100 79.3435
141.054 100 79.1291
142.123 100 78.8398
143.16 100 78.4825
143.977 100 79.1209
145.111 100 78.8079
79.3899 100 79.8951
80.4524 100 80.2442
81.5481 100 79.5699
82.5619 100 79.9959
83.8142 100 80.1639
85.2279 100 80.242
86.2603 100 80.3458
87.3261 100 80.4361
88.3503 100 81.0564
89.5427 100 81.2558
90.5972 100 81.3361
91.6651 100 81.4613
93.2709 100 80.9472
94.0555 100 80.0019
94.5815 100 79.0602
96.1574 100 79.2848
97.1217 100 78.2899
97.8083 100 77.4896
99.1105 100 77.3498
100.2 100 77.1692
101.671 100 75.6555
102.759 100 75.4825
104.397 100 75.1385
105.615 100 74.5122
106.877 100 74.1422
107.879 100 74.6641
109.275 100 74.6824
110.351 100 74.9899
110.442 100 73.0734
111.523 100 72.3879
112.97 100 72.3879
114.05 100 73.0734
114.141 100 74.9899
115.217 100 74.6824
116.614 100 74.6641
117.616 100 74.1422
118.877 100 74.5122
120.095 100 75.1385
121.733 100 75.4825
122.822 100 75.6555
124.292 100 77.1693
125.382 100 77.3498
126.684 100 77.4896
127.371 100 78.2899
128.335 100 79.2848
129.911 100 79.0602
130.437 100 80.0019
131.221 100 80.9472
132.827 100 81.4613
133.895 100 81.3361
134.95 100 81.2558
136.142 100 81.0564
137.166 100 80.4361
138.232 100 80.3458
139.264 100 80.242
140.678 100 80.1639
141.931 100 79.9959
142.944 100 79.5699
144.04 100 80.2442
145.102 100 79.8951
79.5236 100 81.0064
80.5166 100 81.3785
81.5396 100 80.7083
82.4721 100 81.1204
83.51 100 81.1927
84.6233 100 81.1442
85.7258 100 81.2702
86.8377 100 81.3853
87.7636 100 81.987
88.9238 100 82.153
90.0677 100 82.304
91.1692 100 82.4756
92.2415 100 82.315
93.4531 100 82.0181
94.2264 100 81.2905
95.3578 100 79.9182
96.7638 100 80.3827
97.5621 100 79.3736
98.2664 100 78.4888
99.9964 100 78.2654
101.198 100 76.7778
102.624 100 76.5488
103.683 100 76.0148
104.927 100 76.1584
106.042 100 75.6028
107.087 100 75.3807
108.359 100 75.6074
109.461 100 75.7358
111.416 100 75.152
111.105 100 74.0689
113.387 100 74.0689
113.077 100 75.152
115.031 100 75.7358
116.133 100 75.6074
117.406 100 75.3807
118.451 100 75.6028
119.566 100 76.1584
120.809 100 76.0148
121.868 100 76.5488
123.294 100 76.7778
124.496 100 78.2654
126.226 100 78.4888
126.93 100 79.3736
127.729 100 80.3827
129.135 100 79.9182
130.266 100 81.2905
131.039 100 82.0181
132.251 100 82.315
133.323 100 82.4756
134.425 100 82.304
135.569 100 82.153
136.729 100 81.987
137.655 100 81.3853
138.767 100 81.2702
139.869 100 81.1442
140.982 100 81.1927
142.02 100 81.1204
142.953 100 80.7083
143.976 100 81.3785
144.969 100 81.0064
79.4638 100 82.1263
80.6376 100 82.5062
81.5839 100 81.8295
82.5489 100 82.2042
84.1287 100 82.1338
85.1543 100 82.2153
86.1925 100 82.2979
87.0741 100 82.809
88.2129 100 83.064
89.3093 100 83.1924
90.4167 100 83.301
92.0258 100 83.3155
93.0905 100 83.0033
94.2512 100 82.6407
95.1919 100 81.9678
95.8427 100 80.9922
97.7637 100 81.0765
98.3411 100 80.1413
99.1958 100 79.1023
101.087 100 78.0236
102.111 100 77.4915
103.701 100 77.3276
104.786 100 77.3215
105.709 100 76.8732
106.893 100 76.771
108.226 100 76.6776
109.498 100 76.8598
110.495 100 76.258
110.556 100 77.376
111.632 100 76.7281
112.86 100 76.7281
113.937 100 77.376
113.997 100 76.258
114.994 100 76.8598
116.266 100 76.6776
117.599 100 76.771
118.783 100 76.8732
119.706 100 77.3215
120.791 100 77.3276
122.382 100 77.4915
123.406 100 78.0236
125.297 100 79.1023
126.151 100 80.1413
126.729 100 81.0765
128.65 100 80.9922
129.3 100 81.9678
130.241 100 82.6407
131.402 100 83.0033
132.467 100 83.3155
134.076 100 83.301
135.183 100 83.1924
136.28 100 83.064
137.418 100 82.809
138.3 100 82.2979
139.338 100 82.2153
140.364 100 82.1338
141.943 100 82.2042
142.908 100 81.8295
143.855 100 82.5062
145.029 100 82.1263
79.8527 100 83.3187
80.7333 100 83.9589
81.7812 100 83.0459
82.6675 100 83.6883
83.3514 100 82.9102
84.3971 100 83.2215
85.5014 100 83.2561
86.3685 100 83.9025
87.4832 100 83.9378
88.5738 100 84.0435
89.5977 100 84.3875
90.6657 100 84.3689
91.7652 100 84.3157
92.947 100 84.041
94.0169 100 83.6389
95.0877 100 83.5719
96.7712 100 81.5296
98.9683 100 81.0877
99.6061 100 80.118
100.364 100 79.2972
102.063 100 79.3054
102.841 100 78.3713
103.85 100 78.5995
105.359 100 78.2047
106.557 100 77.8356
107.617 100 77.6099
108.622 100 78.5572
109.491 100 78.0575
110.684 100 78.4593
111.749 100 78.0049
112.743 100 78.0049
113.808 100 78.4593
115.002 100 78.0575
115.87 100 78.5572
116.875 100 77.6099
117.935 100 77.8356
119.133 100 78.2047
120.642 100 78.5995
121.651 100 78.3713
122.43 100 79.3054
124.129 100 79.2972
124.886 100 80.118
125.524 100 81.0877
127.721 100 81.5296
129.405 100 83.5719
130.475 100 83.6389
131.545 100 84.041
132.727 100 84.3157
133.827 100 84.3689
134.895 100 84.3875
135.919 100 84.0435
137.009 100 83.9378
138.124 100 83.9025
138.991 100 83.2561
140.095 100 83.2215
141.141 100 82.9102
141.825 100 83.6883
142.711 100 83.0459
143.759 100 83.9589
144.64 100 83.3187
79.8629 100 84.5429
80.9092 100 85.0761
81.754 100 84.2558
82.7987 100 84.7808
83.6586 100 84.0328
84.7723 100 84.1634
85.7314 100 84.7811
86.8285 100 84.9025
87.9215 100 85.0475
88.9494 100 85.2228
89.9362 100 85.468
90.9882 100 85.435
92.4535 100 85.1963
93.4765 100 84.9332
94.4684 100 84.6263
96.1739 100 83.5664
96.3729 100 82.4668
97.5269 100 82.3718
100.046 100 81.5779
100.737 100 80.3375
102.735 100 80.4929
[...]
POINT_DATA 1600
SCALARS mass double
LOOKUP_TABLE default
1
1
1
1
1
1
1
1
1
1
1
1
1
1
1
1
1
1
1
1
1
1
1
1
1
1
1
1
1
1
1
1
1
1
1
1
1
1
1
1
1
1
1
1
1
1
1
1
1
1
1
1
1
1
1
1
1
1
1
1
1
1
1
1
1
1
1
1
1
1
1
1
1
1
1
1
1
1
1
1
1
1
1
1
1
1
1
1
1
1
1
1
1
1
1
1
1
1
1
1
1
1
1
1
1
1
1
1
1
1
1
1
1
1
1
1
1
1
1
1
1
1
1
1
1
1
1
1
1
1
1
1
1
1
1
1
1
1
1
1
1
1
1
1
1
1
1
1
1
1
1
1
1
1
1
1
1
1
1
1
1
1
1
1
1
1
1
1
1
1
1
1
1
1
1
1
1
1
1
1
1
1
1
1
1
1
1
1
1
1
1
1
1
1
1
1
1
1
1
1
1
1
1
1
1
1
1
1
1
1
1
1
1
1
1
1
1
1
1
1
1
1
1
1
1
1
1
1
1
1
1
1
1
1
1
1
1
1
1
1
1
1
1
1
1
1
1
1
1
1
1
1
1
1
1
1
1
1
1
1
1
1
1
1
1
1
1
1
1
1
1
1
1
1
1
1
1
1
1
1
1
1
1
1
1
1
1
1
1
1
1
1
1
1
1
1
1
1
1
1
1
1
1
1
1
1
1
1
1
1
1
1
1
1
1
1
1
1
1
1
1
1
1
1
1
1
1
1
1
1
1
1
1
1
1
1
1
1
1
1
1
1
1
1
1
1
1
1
1
1
1
1
1
1
1
1
1
1
1
1
1
1
1
1
1
1
1
1
1
1
1
1
1
1
1
1
1
1
1
1
1
1
1
1
1
1
1
1
1
1
1
1
1
1
1
1
1
1
1
1
1
1
1
1
1
1
1
1
1
1
1
1
1
1
1
1
1
1
1
1
1
1
1
1
1
1
1
1
1
1
1
1
1
1
1
1
1
1
1
1
1
1
1
1
1
1
1
1
1
1
1
1
1
1
1
1
1
1
1
1
1
1
1
1
1
1
1
1
1
1
1
1
1
1
1
1
1
1
1
1
1
1
1
1
1
1
1
1
1
1
1
1
1
1
1
1
1
1
1
1
1
1
1
1
1
1
1
1
1
1
1
1
1
1
1
1
1
1
1
1
1
1
1
1
1
1
1
1
1
1
1
1
1
1
1
1
1
1
1
1
1
1
1
1
1
1
1
1
1
1
1
1
1
1
1
1
1
1
1
1
1
1
1
1
1
1
1
1
1
1
1
1
1
1
1
1
1
1
1
1
1
1
1
1
1
1
1
1
1
1
1
1
1
1
1
1
1
1
1
1
1
1
1
1
1
1
1
1
1
1
1
1
1
1
1
1
1
1
1
1
1
1
1
1
1
1
1
1
1
1
1
1
1
1
1
1
1
1
1
1
1
1
1
1
1
1
1
1
1
1
1
1
1
1
1
1
1
1
1
1
1
1
1
1
1
1
1
1
1
1
1
1
1
1
1
1
1
1
1
1
1
1
1
1
1
1
1
1
1
1
1
1
1
1
1
1
1
1
1
1
1
1
1
1
1
1
1
1
1
1
1
1
1
1
1
1
1
1
1
1
1
1
1
1
1
1
1
1
1
1
1
1
1
1
1
1
1
1
1
1
1
1
1
1
1
1
1
1
1
1
1
1
1
1
1
1
1
1
1
1
1
1
1
1
1
1
1
1
1
1
1
1
1
1
1
1
1
1
1
1
1
1
1
1
1
1
1
1
1
1
1
1
1
1
1
1
1
1
1
1
1
1
1
1
1
1
1
1
1
1
1
1
1
1
1
1
1
1
1
1
1
1
1
1
1
1
1
1
1
1
1
1
1
1
1
1
1
1
1
1
1
1
1
1
1
1
1
1
1
1
1
1
1
1
1
1
1
1
1
1
1
1
1
1
1
1
1
1
1
1
1
1
1
1
1
1
1
1
1
1
1
1
1
1
1
1
1
1
1
1
1
1
1
1
1
1
1
1
1
1
1
1
1
1
1
1
1
1
1
1
1
1
1
1
1
1
1
1
1
1
1
1
1
1
1
1
1
1
1
1
1
1
1
1
1
1
1
1
1
1
1
1
1
1
1
1
1
1
1
1
1
1
1
1
1
1
1
1
1
1
1
1
1
1
1
1
1
1
1
1
1
1
1
1
1
1
1
1
1
1
1
1
1
1
1
1
1
1
1
1
1
1
1
1
1
1
1
1
1
1
1
1
1
1
1
1
1
1
1
1
1
1
1
1
1
1
1
1
1
1
1
1
1
1
1
1
1
1
1
1
1
1
1
1
1
1
1
1
1
1
1
1
1
1
1
1
1
1
1
1
1
1
1
1
1
1
1
1
1
1
1
1
1
1
1
1
1
1
1
1
1
1
1
1
1
1
1
1
1
1
1
1
1
1
1
1
1
1
1
1
1
1
1
1
1
1
1
1
1
1
1
1
1
1
1
1
1
1
1
1
1
1
1
1
1
1
1
1
1
1
1
1
1
1
1
1
1
1
1
1
1
1
1
1
1
1
1
1
1
1
1
1
1
1
1
1
1
1
1
1
1
1
1
1
1
1
1
1
1
1
1
1
1
1
1
1
1
1
1
1
1
1
1
1
1
1
1
1
1
1
1
1
1
1
1
1
1
1
1
1
1
1
1
1
1
1
1
1
1
1
1
1
1
1
1
1
1
1
1
1
1
1
1
1
1
1
1
1
1
1
1
1
1
1
1
1
1
1
1
1
1
1
1
1
1
1
1
1
1
1
1
1
1
1
1
1
1
1
1
1
1
1
1
1
1
1
1
1
1
1
1
1
1
1
1
1
1
1
1
1
1
1
1
1
1
1
1
1
1
1
1
1
1
1
1
1
1
1
1
1
1
1
1
1
1
1
1
1
1
1
1
1
1
1
1
1
1
1
1
1
1
1
1
1
1
1
1
1
1
1
1
1
1
1
1
1
1
1
1
1
1
1
1
1
1
1
1
1
1
1
1
1
1
1
1
1
1
1
1
1
1
1
1
1
1
1
1
1
1
1
1
1
1
1
1
1
1
1
1
1
1
1
1
1
1
1
1
1
1
1
1
1
1
1
1
1
1
1
1
1
1
1
1
1
1
1
1
1
1
1
1
1
1
1
1
1
1
1
1
1
1
1
1
1
1
1
1
1
1
1
1
1
1
1
1
1
1
1
1
1
1
1
1
1
1
1
1
1
1
1
1
1
1
1
1
1
1
1
1
1
1
1
1
1
1
1
1
1
1
1
1
1
1
1
1
1
1
1
1
1
1
1
1
1
1
1
1
1
1
1
1
1
1
1
1
1
1
1
1
1
1
1
1
1
1
1
1
1
1
1
1
1
1
1
1
1
1
1
1
1
1
1
1
1
1
1
1
1
1
1
1
1
1
1
1
1
1
1
1
1
1
1
1
1
1
1
1
1
1
1
1
1
1
1
1
1
1
1
1
1
1
1
1
1
1
1
1
1
1
1
1
1
1
1
1
1
1
1
1
1
1
1
1
1
1
1
1
1
1
1
1
1
1
1
1
1
1
1
1
1
1
1
1
1
1
1
1
1
1
1
VECTORS force double
-10.4078 0 -38.3537
-62.5277 0 -26.5669
67.4623 0 14.9571
21.7365 0 7.6315
-60.5701 0 -4.18099
57.4188 0 19.9924
-39.9245 0 2.84444
42.0279 0 12.4944
-14.1659 0 -31.6027
20.2491 0 -16.8613
3.92805 0 -36.4722
-14.6159 0 21.2486
-0.0630142 0 20.2044
12.305 0 -12.8181
3.2185 0 11.6089
-24.0468 0 -11.5544
4.78003 0 13.0755
-2.69039 0 15.971
5.35362 0 2.89697
15.4906 0 -82.2755
1.88872 0 11.1892
0.0659909 0 -9.7488
5.53515 0 6.53442
4.78361 0 -6.53857
-8.92446 0 19.6683
7.72078 0 13.6769
1.14752 0 -6.62033
-43.0151 0 19.8015
50.9547 0 -21.1884
-9.01828 0 -39.8513
9.01828 0 -39.8513
-50.9547 0 -21.1884
43.0151 0 19.8015
-1.14752 0 -6.62033
-7.72078 0 13.6769
8.92445 0 19.6683
-4.78361 0 -6.53857
-5.53515 0 6.53442
-0.065991 0 -9.7488
-1.88872 0 11.1892
-15.4906 0 -82.2755
-5.35362 0 2.89695
2.69039 0 15.971
-4.78004 0 13.0755
24.0468 0 -11.5544
-3.2185 0 11.6089
-12.305 0 -12.8181
0.0630154 0 20.2044
14.6159 0 21.2486
-3.92805 0 -36.4722
-20.2491 0 -16.8613
14.1659 0 -31.6027
-42.0279 0 12.4944
39.9245 0 2.84444
-57.4188 0 19.9924
60.5701 0 -4.18099
-21.7365 0 7.6315
-67.4623 0 14.9571
62.5277 0 -26.5669
10.4078 0 -38.3537
-7.8666 0 -20.0341
-8.92641 0 17.9784
8.08458 0 27.7775
-26.9587 0 7.47315
-1.38452 0 -42.7695
-83.9401 0 -37.2083
82.6044 0 -16.7056
-1.92476 0 2.60129
10.8569 0 27.9103
-31.5716 0 37.5007
-51.6083 0 -74.0105
-68.3936 0 -54.9565
19.0502 0 -14.5539
14.2554 0 9.64502
3.8811 0 -20.6029
5.83475 0 3.32578
28.3731 0 9.19235
-4.34784 0 6.31501
-5.60128 0 102.302
-49.3479 0 -15.6753
9.21624 0 -4.38014
11.0533 0 14.1622
-2.32517 0 11.8424
1.64941 0 -12.975
-10.6767 0 -17.2249
-17.0827 0 -11.7633
19.6795 0 5.20421
11.0657 0 -1.78898
0.219333 0 30.5893
-13.3353 0 -49.3008
13.3353 0 -49.3007
-0.219332 0 30.5892
-11.0657 0 -1.78898
-19.6795 0 5.20421
17.0827 0 -11.7633
10.6767 0 -17.2249
-1.64941 0 -12.975
2.32517 0 11.8424
-11.0533 0 14.1622
-9.21624 0 -4.38014
49.3479 0 -15.6753
5.60128 0 102.302
4.34784 0 6.31501
-28.3731 0 9.19237
-5.83475 0 3.32577
-3.8811 0 -20.6029
-14.2554 0 9.64502
-19.0502 0 -14.5539
68.3935 0 -54.9565
51.6083 0 -74.0105
31.5716 0 37.5007
-10.8569 0 27.9103
1.92476 0 2.60129
-82.6044 0 -16.7056
83.9401 0 -37.2083
1.38452 0 -42.7695
26.9587 0 7.47315
-8.08458 0 27.7775
8.92641 0 17.9784
7.8666 0 -20.0341
18.9029 0 41.5823
-20.5852 0 -8.31674
33.3531 0 -13.0126
-1.643 0 -27.7635
7.78927 0 26.2074
-5.11167 0 23.3783
-20.5897 0 41.2039
31.089 0 -1.18667
-4.11196 0 27.5728
72.9813 0 -88.4526
3.99396 0 12.5798
-29.472 0 97.392
88.587 0 -21.8205
32.7022 0 -41.9779
26.855 0 5.65008
-11.0938 0 -49.1178
4.93856 0 11.8315
1.3379 0 -3.64817
4.81527 0 -17.4964
-58.0825 0 -76.6437
7.7958 0 -8.89623
-3.83444 0 8.2544
6.81772 0 11.7167
-71.5481 0 38.4628
63.1843 0 -49.6276
-1.8336 0 5.65194
75.48 0 -61.7704
2.11288 0 13.9991
3.29111 0 -3.96442
-29.0354 0 89.5642
29.0353 0 89.5641
-3.29111 0 -3.96444
-2.11288 0 13.9991
-75.4801 0 -61.7707
1.83354 0 5.65196
-63.1844 0 -49.6263
71.5481 0 38.4629
-6.81771 0 11.7167
3.83444 0 8.2544
-7.79581 0 -8.89623
58.0825 0 -76.6437
-4.81529 0 -17.4964
-1.33785 0 -3.64824
-4.93857 0 11.8315
11.0938 0 -49.1178
-26.855 0 5.6501
-32.7021 0 -41.978
-88.5869 0 -21.8205
29.472 0 97.392
-3.99397 0 12.5798
-72.9813 0 -88.4526
4.11196 0 27.5728
-31.089 0 -1.18667
20.5897 0 41.2039
5.11167 0 23.3783
-7.78927 0 26.2074
1.643 0 -27.7635
-33.3531 0 -13.0126
20.5852 0 -8.31674
-18.9029 0 41.5823
13.1577 0 7.62727
-49.3938 0 66.8098
11.9386 0 -39.2554
15.8026 0 -8.31677
8.6952 0 -13.1373
-38.3583 0 -39.7448
-13.0608 0 -79.8102
62.315 0 40.3716
-49.6938 0 48.4761
46.4474 0 -58.1328
14.1569 0 -43.7621
-135.291 0 23.7982
-34.1753 0 -40.1938
13.7561 0 65.6407
20.436 0 3.27435
12.3113 0 44.8908
-167.736 0 70.7167
26.1621 0 -146.503
66.3317 0 0.867479
-6.09747 0 8.91199
-24.7916 0 -30.7881
37.7135 0 35.9287
0.0339213 0 -4.53295
9.90504 0 -2.18441
6.40579 0 -19.6858
3.27643 0 44.08
-60.8993 0 45.3416
-24.4934 0 -96.4211
0.880008 0 17.8023
-48.3496 0 -10.883
48.3496 0 -10.883
-0.88001 0 17.8023
24.4936 0 -96.4205
60.8998 0 45.3422
-3.27632 0 44.0786
-6.40583 0 -19.6858
-9.90504 0 -2.18442
-0.0339198 0 -4.53296
-37.7135 0 35.9287
24.7915 0 -30.7881
6.09747 0 8.91198
-66.3317 0 0.867539
-26.1621 0 -146.503
167.736 0 70.7167
-12.3113 0 44.8908
-20.436 0 3.27436
-13.7562 0 65.6408
34.1754 0 -40.1938
135.291 0 23.7981
-14.1569 0 -43.7621
-46.4474 0 -58.1328
49.6938 0 48.4761
-62.315 0 40.3716
13.0608 0 -79.8102
38.3583 0 -39.7448
-8.6952 0 -13.1373
-15.8026 0 -8.31677
-11.9386 0 -39.2554
49.3938 0 66.8098
-13.1577 0 7.62727
8.8343 0 7.58084
12.5953 0 6.7915
-22.9026 0 16.3445
18.3339 0 -0.916274
17.6992 0 -13.1421
-67.6043 0 71.5588
49.3261 0 9.08295
6.47747 0 18.4068
-31.78 0 37.1576
-40.3652 0 6.53544
33.6775 0 11.1915
-21.3036 0 -27.949
42.6313 0 -8.65182
-3.35073 0 35.958
17.6609 0 -19.0935
75.1324 0 -56.076
24.5038 0 133.012
35.3517 0 -35.3157
-15.5918 0 1.25475
-9.71878 0 -6.08328
47.4073 0 78.5826
-17.2611 0 -43.4183
9.17257 0 -0.675449
-1.72065 0 11.1339
-14.1557 0 0.888274
3.36341 0 -39.057
-87.9408 0 44.0905
9.41147 0 93.0445
32.2036 0 -66.5562
-14.0166 0 4.06328
14.0166 0 4.06328
-32.2038 0 -66.5564
-9.41195 0 93.0441
87.9409 0 44.0905
-3.36393 0 -39.0576
14.156 0 0.888096
1.72066 0 11.1339
-9.17261 0 -0.67555
17.2613 0 -43.4185
-47.4072 0 78.5826
9.719 0 -6.08319
15.5918 0 1.25475
-35.3517 0 -35.3157
-24.5038 0 133.012
-75.1327 0 -56.0762
-17.6609 0 -19.0935
3.35076 0 35.958
-42.6315 0 -8.65175
21.3036 0 -27.949
-33.6775 0 11.1915
40.3652 0 6.53544
31.78 0 37.1576
-6.47747 0 18.4068
-49.3261 0 9.08295
67.6043 0 71.5588
-17.6992 0 -13.1421
-18.3339 0 -0.916276
22.9026 0 16.3445
-12.5953 0 6.7915
-8.8343 0 7.58084
-19.0805 0 -17.3846
39.0898 0 12.9631
-83.6364 0 -41.0984
20.6372 0 13.7412
35.8379 0 30.506
-8.37349 0 6.26234
-8.68436 0 14.7661
-15.9129 0 15.1426
24.6865 0 -0.676124
-19.6785 0 0.89919
-32.9024 0 -31.9831
-8.97469 0 -1.85403
72.3043 0 -34.8663
-92.3525 0 -57.574
116.433 0 11.2321
-70.5299 0 56.6138
14.372 0 -12.582
-21.7945 0 -7.79586
-1.51308 0 2.24512
-20.0282 0 -9.76721
54.9043 0 20.9976
10.5073 0 -1.78021
29.3009 0 30.735
-29.6372 0 -24.1203
-38.6478 0 15.4716
13.4341 0 11.4525
11.5692 0 1.68452
18.0886 0 24.7452
16.3355 0 10.5682
17.5633 0 -0.321679
-17.5635 0 -0.322136
-16.3353 0 10.5686
-18.0886 0 24.7451
-11.5693 0 1.68485
-13.4336 0 11.4528
38.6475 0 15.4715
29.6371 0 -24.1202
-29.3011 0 30.7352
-10.5072 0 -1.78008
-54.9045 0 20.9975
20.0282 0 -9.76718
1.51308 0 2.24507
21.7945 0 -7.79585
-14.372 0 -12.582
70.5302 0 56.6141
-116.433 0 11.2321
92.3524 0 -57.574
-72.3043 0 -34.8662
8.9747 0 -1.85403
32.9024 0 -31.9831
19.6785 0 0.899198
-24.6865 0 -0.676118
15.9129 0 15.1426
8.68436 0 14.7661
8.37349 0 6.26235
-35.8379 0 30.506
-20.6372 0 13.7412
83.6364 0 -41.0984
-39.0898 0 12.9631
19.0805 0 -17.3846
25.6363 0 8.33934
6.05721 0 0.453354
-63.6245 0 -10.4414
42.9179 0 20.3385
-66.081 0 -7.30016
-1.45947 0 -2.84069
-24.8367 0 -28.0433
59.3439 0 74.4604
-32.1569 0 -57.8336
12.8817 0 10.3448
10.2116 0 34.0267
-9.41576 0 14.8586
15.0974 0 -1.02895
92.7385 0 -12.9296
2.67587 0 -1.10275
-34.5872 0 -7.06703
10.8823 0 11.2839
27.9885 0 -6.15994
4.42719 0 -4.96973
0.142048 0 -15.5318
-16.2171 0 21.3388
-29.0841 0 0.905737
-71.0587 0 -8.96218
106.216 0 -3.73118
-6.01699 0 -19.7395
3.45111 0 15.7832
2.26524 0 7.83752
-0.333966 0 -12.5183
-1.51206 0 -10.5066
-7.75788 0 11.1451
7.75786 0 11.1451
1.51198 0 -10.506
0.334181 0 -12.5186
-2.26528 0 7.83734
-3.45091 0 15.7831
6.01693 0 -19.7402
-106.216 0 -3.73104
71.0581 0 -8.96218
29.0842 0 0.90574
16.2171 0 21.3387
-0.142055 0 -15.5317
-4.42723 0 -4.96971
-27.9885 0 -6.15992
-10.8822 0 11.284
34.5872 0 -7.06703
-2.67586 0 -1.10275
-92.7385 0 -12.9297
-15.0974 0 -1.02892
9.41576 0 14.8586
-10.2116 0 34.0267
-12.8817 0 10.3448
32.1569 0 -57.8336
-59.3439 0 74.4604
24.8367 0 -28.0433
1.45947 0 -2.84068
66.081 0 -7.30016
-42.9179 0 20.3385
63.6245 0 -10.4414
-6.05721 0 0.453354
-25.6363 0 8.33934
-10.5251 0 -9.24951
26.5739 0 -33.8628
-21.5748 0 -8.80228
-52.6329 0 11.9563
39.032 0 -17.5062
-15.4311 0 -96.7771
-2.23397 0 -0.4633
20.0834 0 -20.4108
-9.01999 0 2.53182
7.36063 0 59.8703
15.5371 0 -36.7053
14.3917 0 13.5756
-3.11938 0 60.9003
-49.6812 0 1.54427
-54.5708 0 65.0817
0.794239 0 3.90111
41.5513 0 -63.5837
-0.0313116 0 -3.59665
-6.78473 0 22.2738
-2.74151 0 -4.64857
17.1961 0 -1.30138
-60.0124 0 -6.05801
82.0199 0 -21.5143
27.794 0 29.0228
-36.7818 0 1.26486
24.6284 0 8.30198
-97.9399 0 68.1764
123.03 0 -59.7861
4.83557 0 17.7714
-147.993 0 -0.208902
147.993 0 -0.208541
-4.83464 0 17.772
-123.029 0 -59.786
97.9385 0 68.1767
-24.6288 0 8.30196
36.7821 0 1.26546
-27.7939 0 29.0225
-82.0198 0 -21.5144
60.0122 0 -6.05802
-17.1961 0 -1.3014
2.74153 0 -4.64862
6.78473 0 22.2738
0.0312991 0 -3.59669
-41.5514 0 -63.5837
-0.794256 0 3.90111
54.5708 0 65.0818
49.6812 0 1.54424
3.11939 0 60.9003
-14.3917 0 13.5756
-15.5371 0 -36.7053
-7.36064 0 59.8703
9.02 0 2.53182
-20.0834 0 -20.4108
2.23397 0 -0.463305
15.4311 0 -96.7771
-39.032 0 -17.5062
52.6329 0 11.9563
21.5748 0 -8.80228
-26.5739 0 -33.8628
10.5251 0 -9.24951
-24.41 0 25.6697
-58.2717 0 -20.426
13.57 0 29.8251
-13.4647 0 10.4843
30.4065 0 28.1321
41.672 0 84.618
93.323 0 -51.4652
0.721602 0 2.44313
-34.6481 0 -16.0723
-62.0523 0 22.8217
40.9891 0 14.6664
-23.2447 0 -98.0453
-51.1609 0 -11.3383
11.3124 0 60.7679
72.7252 0 -2.5303
-19.5648 0 17.9965
-33.5172 0 74.1379
-13.152 0 8.517
-3.3855 0 -0.970257
-1.36068 0 16.9336
18.5076 0 -56.4233
-51.4353 0 -33.8168
-184.725 0 28.5954
163.66 0 -23.2818
19.8722 0 15.8793
-57.0782 0 -36.5325
-111.918 0 -130.627
-7.99826 0 4.1533
-18.9441 0 8.65082
-217.018 0 -16.2889
217.018 0 -16.2884
18.9456 0 8.6523
7.9966 0 4.15147
111.919 0 -130.621
57.0758 0 -36.5292
-19.8732 0 15.8803
-163.661 0 -23.283
184.727 0 28.5958
51.4349 0 -33.8161
-18.5073 0 -56.4227
1.36067 0 16.9336
3.3855 0 -0.970291
13.1521 0 8.51699
33.5172 0 74.1379
19.5648 0 17.9965
-72.7251 0 -2.53031
-11.3125 0 60.7679
51.1609 0 -11.3383
23.2447 0 -98.0453
-40.9891 0 14.6664
62.0524 0 22.8217
34.6481 0 -16.0723
-0.721608 0 2.44313
-93.323 0 -51.4652
-41.672 0 84.618
-30.4065 0 28.1321
13.4647 0 10.4843
-13.57 0 29.8251
58.2717 0 -20.426
24.41 0 25.6697
-87.1875 0 -46.6846
78.3957 0 -3.8252
-39.5728 0 -32.7146
94.7454 0 35.6573
-10.9548 0 7.90433
-87.8546 0 29.2497
-3.94542 0 4.08758
-25.6455 0 -32.2909
2.06188 0 66.2812
-46.8816 0 -84.5969
87.9548 0 5.70356
8.5234 0 -27.2733
88.419 0 80.9478
-87.1282 0 -64.8973
44.3608 0 -9.27063
-66.9433 0 -28.5416
17.9382 0 -44.5295
38.8493 0 -9.72418
11.1656 0 5.03699
-37.8036 0 3.82954
-45.5426 0 3.28386
20.4489 0 25.5694
-7.81841 0 57.121
-58.6678 0 -57.1391
68.2148 0 -28.9009
-23.1205 0 -5.7085
66.1331 0 -2.22456
137.637 0 108.856
-5.07287 0 11.9436
16.5536 0 -14.344
-16.5492 0 -14.3412
5.06859 0 11.9421
-137.636 0 108.85
-66.1324 0 -2.22905
23.1213 0 -5.70847
-68.2147 0 -28.9014
58.6674 0 -57.138
7.8186 0 57.1204
-20.449 0 25.569
45.5423 0 3.28384
37.8033 0 3.82952
-11.1656 0 5.03698
-38.8493 0 -9.72424
-17.9381 0 -44.5296
66.9432 0 -28.5416
-44.3609 0 -9.27066
87.1283 0 -64.8974
-88.419 0 80.9478
-8.52339 0 -27.2733
-87.9548 0 5.70355
46.8816 0 -84.5969
-2.0619 0 66.2812
25.6455 0 -32.2909
3.94542 0 4.08757
87.8546 0 29.2497
10.9548 0 7.90433
-94.7454 0 35.6573
39.5728 0 -32.7146
-78.3957 0 -3.8252
87.1875 0 -46.6846
-36.6572 0 -37.9046
41.7173 0 -61.4556
-32.5004 0 -44.3414
18.2694 0 25.0302
1.06267 0 2.00974
-30.645 0 -23.4611
18.3651 0 61.7172
-10.9509 0 -6.98617
29.0451 0 -41.7998
31.9517 0 44.1325
-35.1632 0 -5.35535
-48.4138 0 21.1658
-34.6457 0 -14.9271
116.106 0 -39.6906
-6.33287 0 -31.2442
-22.0939 0 -28.5051
-17.62 0 -3.31905
36.1076 0 16.4599
2.44104 0 -61.0388
-5.12749 0 1.90828
33.0761 0 -0.734989
-18.4778 0 -9.58582
-16.681 0 -27.8798
-10.5646 0 -12.794
3.77125 0 43.8147
8.5589 0 -3.90297
-24.8971 0 31.0749
-23.8387 0 6.25416
20.2594 0 -3.46478
-14.083 0 9.08844
14.0822 0 9.08674
-20.2576 0 -3.46732
23.8375 0 6.25443
24.8972 0 31.076
-8.55901 0 -3.90189
-3.77136 0 43.8136
10.5645 0 -12.7939
16.6812 0 -27.88
18.4778 0 -9.58572
-33.0757 0 -0.735042
5.1275 0 1.90829
-2.44122 0 -61.0387
-36.1076 0 16.46
17.6201 0 -3.31908
22.094 0 -28.5052
6.3329 0 -31.2443
-116.106 0 -39.6905
34.6457 0 -14.9271
48.4138 0 21.1658
35.1632 0 -5.35536
-31.9517 0 44.1325
-29.0451 0 -41.7998
10.9509 0 -6.98617
-18.3651 0 61.7172
30.645 0 -23.4611
-1.06267 0 2.00974
-18.2694 0 25.0302
32.5004 0 -44.3414
-41.7173 0 -61.4556
36.6572 0 -37.9046
49.8887 0 50.1052
-44.1187 0 66.8721
-6.36812 0 1.09629
31.6365 0 41.6522
-38.0004 0 2.05546
21.8937 0 -8.98377
10.0816 0 -1.3746
-26.6276 0 -27.1444
20.1065 0 22.5799
7.42687 0 4.859
-19.5467 0 -1.5186
27.3324 0 42.2262
5.77383 0 -8.30843
-107.846 0 31.709
6.5702 0 24.7902
53.2395 0 9.33466
-103.218 0 35.4588
107.697 0 29.8973
-11.8345 0 141.209
-102.977 0 -156.701
8.12537 0 -86.3104
-90.9912 0 -60.8158
71.6688 0 -35.5455
52.959 0 74.7197
4.69071 0 5.68863
-24.6794 0 -8.17913
-4.05419 0 -22.7195
9.95911 0 -48.6197
-50.0303 0 -82.3676
5.73133 0 -13.3104
-5.73088 0 -13.3078
50.0316 0 -82.3736
-9.95894 0 -48.6215
4.05549 0 -22.7201
24.6785 0 -8.1775
-4.69067 0 5.68857
-52.959 0 74.7197
-71.6688 0 -35.5454
90.991 0 -60.8157
-8.12563 0 -86.3101
102.978 0 -156.701
11.8344 0 141.209
-107.697 0 29.8973
103.218 0 35.4589
-53.2397 0 9.33479
-6.57004 0 24.7902
107.846 0 31.709
-5.77382 0 -8.30844
-27.3325 0 42.2263
19.5467 0 -1.5186
-7.42687 0 4.859
-20.1065 0 22.5799
26.6276 0 -27.1444
-10.0816 0 -1.37461
-21.8937 0 -8.98375
38.0004 0 2.05547
-31.6365 0 41.6522
6.36812 0 1.0963
44.1187 0 66.8721
-49.8887 0 50.1052
14.3882 0 -12.81
-10.1587 0 -14.5995
23.7541 0 22.9228
-52.1361 0 23.344
81.2616 0 2.40682
-14.0694 0 17.974
-39.2704 0 3.94575
30.9252 0 -20.6362
1.37714 0 42.3956
-28.8709 0 -25.1295
4.39171 0 -1.14059
-3.11725 0 -22.9925
-32.6564 0 -18.6994
30.4337 0 -8.85974
34.1752 0 80.2692
33.0418 0 53.3922
-11.7969 0 4.04782
3.78039 0 15.3041
-53.0812 0 18.4854
-34.4152 0 -27.3362
83.9289 0 125.233
54.8263 0 -18.0354
77.9226 0 94.9051
-47.393 0 -22.2359
-24.628 0 -2.3608
26.3174 0 0.687234
24.1514 0 75.4942
-27.3098 0 -34.5219
33.6372 0 24.9045
16.6499 0 6.47759
-16.6502 0 6.47509
-33.6393 0 24.9066
27.3041 0 -34.5219
-24.1519 0 75.4944
-26.3144 0 0.682947
24.6264 0 -2.36025
47.3929 0 -22.2356
-77.9227 0 94.905
-54.8259 0 -18.0354
-83.9294 0 125.233
34.4151 0 -27.3362
53.0809 0 18.4855
-3.78036 0 15.304
11.797 0 4.04775
-33.0418 0 53.3922
-34.1752 0 80.2692
-30.4337 0 -8.85973
32.6564 0 -18.6994
3.11725 0 -22.9925
-4.39171 0 -1.14059
28.8709 0 -25.1295
-1.37714 0 42.3956
-30.9252 0 -20.6362
39.2704 0 3.94575
14.0694 0 17.974
-81.2616 0 2.40682
52.1361 0 23.344
-23.7541 0 22.9228
10.1587 0 -14.5995
-14.3882 0 -12.81
-28.8272 0 -43.1294
9.56376 0 6.3573
-3.38648 0 -14.2568
-1.9523 0 -4.48744
-58.7272 0 -1.10743
50.0081 0 1.48708
-61.7279 0 -4.58874
29.8735 0 15.8728
-5.51201 0 -40.0564
18.062 0 27.0983
-85.5064 0 11.1378
107.109 0 21.1606
-19.2576 0 -12.4765
-18.7375 0 4.21795
14.792 0 -61.4351
-192.043 0 -88.622
160.137 0 14.4128
-33.5676 0 -9.76063
3.79491 0 -27.4809
-139.839 0 -82.3287
-14.95 0 19.8922
-129.228 0 31.5312
84.1803 0 -73.517
9.87193 0 -1.26361
19.2855 0 6.8201
-19.3577 0 -37.2534
25.0405 0 17.2142
-138.177 0 -14.0014
125.885 0 53.2108
16.3403 0 -41.2402
-16.3411 0 -41.2415
-125.881 0 53.2167
138.181 0 -14.0006
-25.0411 0 17.2157
19.3576 0 -37.253
-19.2856 0 6.82006
-9.87154 0 -1.26362
-84.1805 0 -73.5166
129.228 0 31.5307
14.9501 0 19.8931
139.839 0 -82.3289
-3.7948 0 -27.4809
33.5676 0 -9.76063
-160.137 0 14.4128
192.043 0 -88.622
-14.7919 0 -61.435
18.7375 0 4.21795
19.2575 0 -12.4764
-107.109 0 21.1606
85.5065 0 11.1378
-18.062 0 27.0983
5.51201 0 -40.0564
-29.8735 0 15.8728
61.7279 0 -4.58873
-50.0081 0 1.48707
58.7272 0 -1.10743
1.9523 0 -4.48744
3.38648 0 -14.2568
-9.56376 0 6.3573
28.8272 0 -43.1294
-5.96941 0 -9.65137
43.0583 0 63.8434
-3.14446 0 -39.0997
6.18806 0 1.89909
-1.0282 0 0.0582658
-19.5923 0 14.4162
19.6683 0 -12.2265
9.34691 0 -17.0335
-19.036 0 -5.02119
8.47906 0 -0.206608
22.7834 0 -77.9977
-5.19489 0 -90.136
-12.7975 0 -1.24893
16.382 0 26.6564
8.96152 0 33.2287
-17.2582 0 35.1637
-23.2517 0 -7.50934
15.599 0 56.0327
32.0705 0 25.1692
12.6367 0 22.8112
13.9813 0 49.514
3.49103 0 -26.1284
26.6522 0 -2.33039
-6.38014 0 13.1466
22.5548 0 14.4697
-3.03257 0 46.6936
17.2231 0 4.64177
64.1489 0 -42.791
11.0197 0 39.0193
-25.0211 0 -92.5417
25.0211 0 -92.5415
-11.0183 0 39.0188
-64.1512 0 -42.7888
-17.2229 0 4.64186
3.03251 0 46.6931
-22.5559 0 14.4701
6.38112 0 13.146
-26.6522 0 -2.33037
-3.49122 0 -26.1283
-13.9815 0 49.5134
-12.6367 0 22.8112
-32.0705 0 25.1692
-15.5989 0 56.0327
23.2516 0 -7.50931
17.2582 0 35.1636
-8.96162 0 33.2288
-16.3819 0 26.6563
12.7975 0 -1.24893