# vtk DataFile Version 3.0
SiWiRVisFile
ASCII
DATASET UNSTRUCTURED_GRID
POINTS 1600 DOUBLE
79.2402 100 75.8551
80.19 100 76.373
81.2503 100 76.6843
82.6531 100 76.2639
83.7138 100 76.6609
84.8083 100 76.7503
85.9271 100 76.7639
87.0337 100 76.8246
88.1568 100 76.9138
89.2402 100 76.9875
90.255 100 77.0252
91.2837 100 77.0648
92.4434 100 77.0139
93.6332 100 76.9108
94.8787 100 76.8658
96.0373 100 76.8577
97.0445 100 76.8379
98.1072 100 76.6143
99.1001 100 76.3072
100.132 100 75.9489
102.164 100 71.4887
102.936 100 73.1082
103.8 100 72.2364
104.938 100 72.1931
106.018 100 72.2571
107.247 100 72.1841
108.376 100 72.0881
109.578 100 71.9503
110.715 100 71.9818
111.686 100 71.4343
112.806 100 71.4343
113.778 100 71.9818
114.914 100 71.9503
116.117 100 72.0881
117.245 100 72.1841
118.475 100 72.2571
119.555 100 72.1931
120.693 100 72.2364
121.556 100 73.1082
122.329 100 71.4887
124.361 100 75.9489
125.392 100 76.3072
126.385 100 76.6143
127.448 100 76.8379
128.455 100 76.8577
129.614 100 76.8658
130.859 100 76.9108
132.049 100 77.0139
133.209 100 77.0648
134.237 100 77.0252
135.252 100 76.9875
136.336 100 76.9138
137.459 100 76.8246
138.565 100 76.7639
139.684 100 76.7503
140.779 100 76.6609
141.839 100 76.2639
143.242 100 76.6843
144.302 100 76.373
145.252 100 75.8551
79.2405 100 77.0467
80.3458 100 77.5017
82.1475 100 77.26
83.1535 100 77.5847
84.2799 100 77.6851
85.375 100 77.7233
86.4668 100 77.7718
87.5933 100 77.839
88.6418 100 77.9113
89.764 100 77.9838
90.8323 100 78.0519
91.9486 100 77.9572
93.1776 100 77.8905
94.3274 100 77.7909
95.4667 100 77.8174
96.5553 100 77.8802
97.58 100 77.6803
98.6972 100 77.5175
100.181 100 76.9492
101.189 100 76.7678
102.084 100 74.0638
102.214 100 76.2574
103.55 100 75.042
104.906 100 74.7023
105.544 100 73.7447
106.513 100 73.2651
107.827 100 73.3438
108.966 100 73.0074
110.385 100 72.9747
111.587 100 72.8185
112.905 100 72.8185
114.108 100 72.9747
115.526 100 73.0074
116.666 100 73.3438
117.979 100 73.2651
118.948 100 73.7447
119.587 100 74.7023
120.943 100 75.042
122.278 100 76.2574
122.409 100 74.0638
123.303 100 76.7678
124.311 100 76.9492
125.795 100 77.5175
126.912 100 77.6803
127.937 100 77.8802
129.026 100 77.8174
130.165 100 77.7909
131.315 100 77.8905
132.544 100 77.9572
133.66 100 78.0519
134.728 100 77.9838
135.851 100 77.9113
136.899 100 77.839
138.026 100 77.7718
139.117 100 77.7233
140.212 100 77.6851
141.339 100 77.5847
142.345 100 77.26
144.147 100 77.5017
145.252 100 77.0467
79.3652 100 78.1944
80.3988 100 78.5918
81.3581 100 78.0357
82.492 100 78.433
83.6355 100 78.5728
84.7518 100 78.706
85.8736 100 78.7345
86.97 100 78.7633
88.0644 100 78.8455
89.1652 100 78.8821
90.2454 100 78.9246
91.4887 100 78.8989
92.7058 100 78.8627
93.7798 100 78.7661
94.9059 100 78.8593
96.0173 100 78.8572
97.0937 100 78.8434
98.1623 100 78.4902
99.4702 100 78.1601
100.8 100 77.9851
102.226 100 77.3952
103.233 100 76.5127
104.235 100 76.9203
105.672 100 76.8574
106.79 100 76.3683
108.057 100 76.8806
109.435 100 76.7871
109.847 100 75.6317
110.714 100 74.7822
111.687 100 73.9643
112.805 100 73.9643
113.778 100 74.7822
114.645 100 75.6317
115.057 100 76.7871
116.436 100 76.8806
117.703 100 76.3683
118.82 100 76.8574
120.257 100 76.9203
121.259 100 76.5127
122.266 100 77.3952
123.693 100 77.9851
125.022 100 78.1601
126.33 100 78.4902
127.399 100 78.8434
128.475 100 78.8572
129.587 100 78.8593
130.713 100 78.7661
131.787 100 78.8627
133.004 100 78.8989
134.247 100 78.9246
135.327 100 78.8821
136.428 100 78.8455
137.522 100 78.7633
138.619 100 78.7345
139.741 100 78.706
140.857 100 78.5728
142 100 78.433
143.134 100 78.0357
144.094 100 78.5918
145.127 100 78.1944
79.5285 100 79.2648
80.7633 100 79.6564
81.6959 100 79.1448
82.8954 100 79.5449
83.9707 100 79.5857
85.0915 100 79.7604
86.1766 100 79.7925
87.2749 100 79.8688
88.4017 100 79.9031
89.5044 100 79.9134
90.5361 100 80.044
91.5955 100 80.0476
92.6488 100 79.925
93.7143 100 79.8954
94.761 100 79.9654
95.7612 100 79.9583
96.7484 100 79.889
97.7279 100 79.6119
98.86 100 79.2916
99.8921 100 79.2358
100.956 100 79.0083
102.532 100 78.4386
103.363 100 77.7412
104.552 100 77.9117
105.612 100 78.0218
106.801 100 77.5527
108.023 100 78.0231
109.34 100 78.0749
110.547 100 77.1594
111.143 100 75.8651
113.35 100 75.8651
113.945 100 77.1594
115.153 100 78.0749
116.47 100 78.0231
117.691 100 77.5527
118.88 100 78.0218
119.94 100 77.9117
121.13 100 77.7412
121.96 100 78.4386
123.536 100 79.0083
124.6 100 79.2358
125.632 100 79.2916
126.765 100 79.6119
127.744 100 79.889
128.731 100 79.9583
129.731 100 79.9654
130.778 100 79.8954
131.844 100 79.925
132.897 100 80.0476
133.956 100 80.044
134.988 100 79.9134
136.091 100 79.9031
137.218 100 79.8688
138.316 100 79.7925
139.401 100 79.7604
140.522 100 79.5857
141.597 100 79.5449
142.797 100 79.1448
143.729 100 79.6564
144.964 100 79.2648
79.8649 100 80.2862
80.8955 100 80.7513
82.0034 100 80.1861
83.0013 100 80.7272
84.2791 100 80.6291
85.5046 100 80.8775
86.6234 100 80.7803
87.8056 100 80.8037
88.8536 100 80.8952
89.9046 100 80.95
90.9413 100 81.0147
92.0016 100 81.0573
93.0666 100 80.9851
94.1697 100 80.9417
95.2094 100 80.9168
96.2778 100 80.8827
97.2882 100 80.7561
98.296 100 80.4466
99.3471 100 80.2225
100.453 100 80.1096
101.942 100 79.4863
103.035 100 79.3347
104.092 100 78.9208
105.029 100 79.2066
106.034 100 79.0147
107.162 100 78.7169
108.39 100 79.0926
109.815 100 79.0497
110.717 100 78.1641
111.652 100 77.0871
112.84 100 77.0871
113.775 100 78.1641
114.678 100 79.0497
116.103 100 79.0926
117.331 100 78.7169
118.458 100 79.0147
119.463 100 79.2066
120.401 100 78.9208
121.458 100 79.3347
122.55 100 79.4863
124.04 100 80.1096
125.145 100 80.2225
126.196 100 80.4466
127.204 100 80.7561
128.215 100 80.8827
129.283 100 80.9168
130.323 100 80.9417
131.426 100 80.9851
132.491 100 81.0573
133.551 100 81.0147
134.588 100 80.95
135.639 100 80.8952
136.687 100 80.8037
137.869 100 80.7803
138.988 100 80.8775
140.213 100 80.6291
141.491 100 80.7272
142.489 100 80.1861
143.597 100 80.7513
144.627 100 80.2862
80.0166 100 81.4012
80.9317 100 81.9168
81.8659 100 81.2561
82.7435 100 81.888
83.7294 100 81.5504
84.7572 100 81.9341
85.7966 100 81.9453
86.9425 100 81.9522
88.059 100 81.9897
89.2007 100 81.9579
90.3406 100 82.029
91.4584 100 82.0085
92.588 100 81.9689
93.6723 100 81.8611
94.7343 100 81.8468
95.8004 100 81.8089
96.8419 100 81.7965
97.8515 100 81.6131
98.8212 100 81.3141
99.8899 100 81.0801
101.311 100 80.6672
102.539 100 80.3027
103.73 100 80.2012
104.848 100 80.2928
105.787 100 80.1115
106.949 100 79.8925
108.035 100 80.1529
109.159 100 79.9796
110.739 100 79.9706
111.631 100 79.4501
112.861 100 79.4501
113.753 100 79.9706
115.333 100 79.9796
116.458 100 80.1529
117.544 100 79.8925
118.705 100 80.1115
119.644 100 80.2928
120.762 100 80.2012
121.954 100 80.3027
123.181 100 80.6672
124.603 100 81.0801
125.671 100 81.3141
126.641 100 81.6131
127.651 100 81.7965
128.692 100 81.8089
129.758 100 81.8468
130.82 100 81.8611
131.904 100 81.9689
133.034 100 82.0085
134.152 100 82.029
135.292 100 81.9579
136.433 100 81.9897
137.55 100 81.9522
138.696 100 81.9453
139.735 100 81.9341
140.763 100 81.5504
141.749 100 81.888
142.627 100 81.2561
143.561 100 81.9168
144.476 100 81.4012
79.9945 100 82.5176
80.9541 100 83.0538
81.8544 100 82.4582
82.9965 100 82.9985
84.0649 100 82.781
85.2968 100 83.0609
86.4461 100 82.9163
87.5454 100 82.972
88.6869 100 82.998
89.8475 100 83.0184
91.0121 100 83.0022
92.1962 100 82.995
93.3018 100 82.929
94.3496 100 82.891
95.4375 100 82.8946
96.4329 100 82.9515
97.4021 100 82.6315
98.6519 100 82.3004
99.6199 100 82.0738
100.728 100 81.5954
102.028 100 81.4412
103.072 100 81.211
104.135 100 81.159
105.324 100 81.2452
106.423 100 80.9948
107.496 100 80.9981
108.892 100 81.0958
109.934 100 80.7047
110.92 100 81.0658
111.741 100 80.4628
112.751 100 80.4628
113.572 100 81.0658
114.558 100 80.7047
115.6 100 81.0958
116.996 100 80.9981
118.069 100 80.9948
119.168 100 81.2452
120.357 100 81.159
121.421 100 81.211
122.465 100 81.4412
123.764 100 81.5954
124.873 100 82.0738
125.84 100 82.3004
127.09 100 82.6315
128.06 100 82.9515
129.055 100 82.8946
130.143 100 82.891
131.191 100 82.929
132.296 100 82.995
133.48 100 83.0022
134.645 100 83.0184
135.806 100 82.998
136.947 100 82.972
138.046 100 82.9163
139.196 100 83.0609
140.428 100 82.781
141.496 100 82.9985
142.638 100 82.4582
143.538 100 83.0538
144.498 100 82.5176
80.0196 100 83.6461
81.0342 100 84.1571
81.9681 100 83.5662
82.9008 100 84.1028
83.9501 100 83.8333
84.9705 100 84.1719
86.0364 100 84.008
87.1401 100 84.0173
88.1836 100 83.9694
89.2671 100 83.9127
90.4178 100 83.9257
91.5845 100 83.8945
92.7544 100 83.8585
93.8454 100 83.8404
94.9147 100 83.8781
95.9798 100 83.914
97.0972 100 83.6946
98.2675 100 83.2618
99.3124 100 83.1294
100.516 100 82.7006
101.493 100 82.2876
102.783 100 82.2344
103.763 100 82.1642
104.832 100 82.151
105.779 100 82.118
107.036 100 82.0579
108.151 100 81.9296
109.458 100 82.0877
110.596 100 82.1577
111.64 100 81.7655
112.852 100 81.7655
113.896 100 82.1577
115.035 100 82.0877
116.341 100 81.9296
117.456 100 82.0579
118.713 100 82.118
119.66 100 82.151
120.729 100 82.1642
121.71 100 82.2344
122.999 100 82.2876
123.977 100 82.7006
125.18 100 83.1294
126.225 100 83.2618
127.395 100 83.6946
128.513 100 83.914
129.578 100 83.8781
130.647 100 83.8404
131.738 100 83.8585
132.908 100 83.8945
134.075 100 83.9257
135.225 100 83.9127
136.309 100 83.9694
137.352 100 84.0173
138.456 100 84.008
139.522 100 84.1719
140.542 100 83.8333
141.592 100 84.1028
142.524 100 83.5662
143.458 100 84.1571
144.473 100 83.6461
79.9344 100 84.7358
80.9819 100 85.2159
81.9816 100 84.6921
82.951 100 85.2227
83.9896 100 85.009
85.1107 100 85.2151
86.1516 100 85.1959
87.2628 100 85.1635
88.4169 100 85.1266
89.5542 100 85.0481
90.6918 100 85.0357
91.8318 100 85.0362
92.9637 100 85.0235
94.0873 100 85.0291
95.1716 100 85.0247
96.1403 100 85.122
97.1556 100 84.7609
98.1194 100 84.4484
99.7973 100 84.0757
100.769 100 83.6805
102.045 100 83.1493
[...]
POINT_DATA 1600
SCALARS mass double
LOOKUP_TABLE default
1
1
1
1
1
1
1
1
1
1
1
1
1
1
1
1
1
1
1
1
1
1
1
1
1
1
1
1
1
1
1
1
1
1
1
1
1
1
1
1
1
1
1
1
1
1
1
1
1
1
1
1
1
1
1
1
1
1
1
1
1
1
1
1
1
1
1
1
1
1
1
1
1
1
1
1
1
1
1
1
1
1
1
1
1
1
1
1
1
1
1
1
1
1
1
1
1
1
1
1
1
1
1
1
1
1
1
1
1
1
1
1
1
1
1
1
1
1
1
1
1
1
1
1
1
1
1
1
1
1
1
1
1
1
1
1
1
1
1
1
1
1
1
1
1
1
1
1
1
1
1
1
1
1
1
1
1
1
1
1
1
1
1
1
1
1
1
1
1
1
1
1
1
1
1
1
1
1
1
1
1
1
1
1
1
1
1
1
1
1
1
1
1
1
1
1
1
1
1
1
1
1
1
1
1
1
1
1
1
1
1
1
1
1
1
1
1
1
1
1
1
1
1
1
1
1
1
1
1
1
1
1
1
1
1
1
1
1
1
1
1
1
1
1
1
1
1
1
1
1
1
1
1
1
1
1
1
1
1
1
1
1
1
1
1
1
1
1
1
1
1
1
1
1
1
1
1
1
1
1
1
1
1
1
1
1
1
1
1
1
1
1
1
1
1
1
1
1
1
1
1
1
1
1
1
1
1
1
1
1
1
1
1
1
1
1
1
1
1
1
1
1
1
1
1
1
1
1
1
1
1
1
1
1
1
1
1
1
1
1
1
1
1
1
1
1
1
1
1
1
1
1
1
1
1
1
1
1
1
1
1
1
1
1
1
1
1
1
1
1
1
1
1
1
1
1
1
1
1
1
1
1
1
1
1
1
1
1
1
1
1
1
1
1
1
1
1
1
1
1
1
1
1
1
1
1
1
1
1
1
1
1
1
1
1
1
1
1
1
1
1
1
1
1
1
1
1
1
1
1
1
1
1
1
1
1
1
1
1
1
1
1
1
1
1
1
1
1
1
1
1
1
1
1
1
1
1
1
1
1
1
1
1
1
1
1
1
1
1
1
1
1
1
1
1
1
1
1
1
1
1
1
1
1
1
1
1
1
1
1
1
1
1
1
1
1
1
1
1
1
1
1
1
1
1
1
1
1
1
1
1
1
1
1
1
1
1
1
1
1
1
1
1
1
1
1
1
1
1
1
1
1
1
1
1
1
1
1
1
1
1
1
1
1
1
1
1
1
1
1
1
1
1
1
1
1
1
1
1
1
1
1
1
1
1
1
1
1
1
1
1
1
1
1
1
1
1
1
1
1
1
1
1
1
1
1
1
1
1
1
1
1
1
1
1
1
1
1
1
1
1
1
1
1
1
1
1
1
1
1
1
1
1
1
1
1
1
1
1
1
1
1
1
1
1
1
1
1
1
1
1
1
1
1
1
1
1
1
1
1
1
1
1
1
1
1
1
1
1
1
1
1
1
1
1
1
1
1
1
1
1
1
1
1
1
1
1
1
1
1
1
1
1
1
1
1
1
1
1
1
1
1
1
1
1
1
1
1
1
1
1
1
1
1
1
1
1
1
1
1
1
1
1
1
1
1
1
1
1
1
1
1
1
1
1
1
1
1
1
1
1
1
1
1
1
1
1
1
1
1
1
1
1
1
1
1
1
1
1
1
1
1
1
1
1
1
1
1
1
1
1
1
1
1
1
1
1
1
1
1
1
1
1
1
1
1
1
1
1
1
1
1
1
1
1
1
1
1
1
1
1
1
1
1
1
1
1
1
1
1
1
1
1
1
1
1
1
1
1
1
1
1
1
1
1
1
1
1
1
1
1
1
1
1
1
1
1
1
1
1
1
1
1
1
1
1
1
1
1
1
1
1
1
1
1
1
1
1
1
1
1
1
1
1
1
1
1
1
1
1
1
1
1
1
1
1
1
1
1
1
1
1
1
1
1
1
1
1
1
1
1
1
1
1
1
1
1
1
1
1
1
1
1
1
1
1
1
1
1
1
1
1
1
1
1
1
1
1
1
1
1
1
1
1
1
1
1
1
1
1
1
1
1
1
1
1
1
1
1
1
1
1
1
1
1
1
1
1
1
1
1
1
1
1
1
1
1
1
1
1
1
1
1
1
1
1
1
1
1
1
1
1
1
1
1
1
1
1
1
1
1
1
1
1
1
1
1
1
1
1
1
1
1
1
1
1
1
1
1
1
1
1
1
1
1
1
1
1
1
1
1
1
1
1
1
1
1
1
1
1
1
1
1
1
1
1
1
1
1
1
1
1
1
1
1
1
1
1
1
1
1
1
1
1
1
1
1
1
1
1
1
1
1
1
1
1
1
1
1
1
1
1
1
1
1
1
1
1
1
1
1
1
1
1
1
1
1
1
1
1
1
1
1
1
1
1
1
1
1
1
1
1
1
1
1
1
1
1
1
1
1
1
1
1
1
1
1
1
1
1
1
1
1
1
1
1
1
1
1
1
1
1
1
1
1
1
1
1
1
1
1
1
1
1
1
1
1
1
1
1
1
1
1
1
1
1
1
1
1
1
1
1
1
1
1
1
1
1
1
1
1
1
1
1
1
1
1
1
1
1
1
1
1
1
1
1
1
1
1
1
1
1
1
1
1
1
1
1
1
1
1
1
1
1
1
1
1
1
1
1
1
1
1
1
1
1
1
1
1
1
1
1
1
1
1
1
1
1
1
1
1
1
1
1
1
1
1
1
1
1
1
1
1
1
1
1
1
1
1
1
1
1
1
1
1
1
1
1
1
1
1
1
1
1
1
1
1
1
1
1
1
1
1
1
1
1
1
1
1
1
1
1
1
1
1
1
1
1
1
1
1
1
1
1
1
1
1
1
1
1
1
1
1
1
1
1
1
1
1
1
1
1
1
1
1
1
1
1
1
1
1
1
1
1
1
1
1
1
1
1
1
1
1
1
1
1
1
1
1
1
1
1
1
1
1
1
1
1
1
1
1
1
1
1
1
1
1
1
1
1
1
1
1
1
1
1
1
1
1
1
1
1
1
1
1
1
1
1
1
1
1
1
1
1
1
1
1
1
1
1
1
1
1
1
1
1
1
1
1
1
1
1
1
1
1
1
1
1
1
1
1
1
1
1
1
1
1
1
1
1
1
1
1
1
1
1
1
1
1
1
1
1
1
1
1
1
1
1
1
1
1
1
1
1
1
1
1
1
1
1
1
1
1
1
1
1
1
1
1
1
1
1
1
1
1
1
1
1
1
1
1
1
1
1
1
1
1
1
1
1
1
1
1
1
1
1
1
1
1
1
1
1
1
1
1
1
1
1
1
1
1
1
1
1
1
1
1
1
1
1
1
1
1
1
1
1
1
1
1
1
1
1
1
1
1
1
1
1
1
1
1
1
1
1
1
1
1
1
1
1
1
1
1
1
1
1
1
1
1
1
1
1
1
1
1
1
1
1
1
1
1
1
1
1
1
1
1
1
1
1
1
1
1
1
1
1
1
1
1
1
1
1
1
1
1
1
1
1
1
1
1
1
1
1
1
1
1
1
1
1
1
1
1
1
1
1
1
1
1
1
1
1
1
1
1
1
1
1
1
1
1
1
1
1
1
1
1
1
1
1
VECTORS force double
-14.0412 0 3.67932
4.23696 0 17.5075
-19.9976 0 3.64597
0.0163529 0 10.2269
0.548766 0 -5.68535
18.4906 0 -14.7347
0.857524 0 2.48604
12.2911 0 4.4836
-9.41026 0 -15.6706
-69.4634 0 -4.44488
35.4323 0 -5.44195
77.3037 0 -10.2445
19.0618 0 -18.7255
8.45641 0 -13.0471
5.46784 0 -15.2225
-106.503 0 8.48274
21.069 0 -94.6773
-51.5849 0 9.02147
46.5886 0 7.6964
13.0998 0 -112.434
2.49867 0 2.47284
0.484854 0 -0.873628
-5.2685 0 7.73106
-19.1472 0 2.88638
28.1445 0 5.18329
-9.62633 0 20.4579
-0.937421 0 -1.73371
-6.55204 0 20.6825
17.1424 0 -33.8243
1.30931 0 9.65721
-1.30931 0 9.65721
-17.1424 0 -33.8243
6.55204 0 20.6825
0.937421 0 -1.73371
9.62633 0 20.4579
-28.1445 0 5.18329
19.1472 0 2.88638
5.2685 0 7.73106
-0.484854 0 -0.873628
-2.49867 0 2.47284
-13.0998 0 -112.434
-46.5886 0 7.6964
51.5849 0 9.02147
-21.069 0 -94.6773
106.503 0 8.48274
-5.46784 0 -15.2225
-8.45641 0 -13.0471
-19.0618 0 -18.7255
-77.3037 0 -10.2445
-35.4323 0 -5.44195
69.4634 0 -4.44488
9.41026 0 -15.6706
-12.2911 0 4.4836
-0.857524 0 2.48604
-18.4906 0 -14.7347
-0.548766 0 -5.68535
-0.0163529 0 10.2269
19.9976 0 3.64597
-4.23696 0 17.5075
14.0412 0 3.67932
19.1725 0 -3.0807
-5.48234 0 -18.1431
-2.67066 0 14.635
33.1496 0 -2.97951
-20.9905 0 5.90053
-7.85131 0 12.9067
4.76066 0 1.99623
-54.0927 0 0.743594
40.7977 0 1.34606
-40.1485 0 -30.235
19.9604 0 -44.0327
26.3064 0 -4.09687
-25.1679 0 -27.0211
-6.28681 0 28.7108
-16.2987 0 20.0285
-35.4191 0 -6.07767
40.98 0 -3.8792
-66.7469 0 -66.9564
-78.996 0 142.418
76.2786 0 -3.61555
9.52323 0 -7.01572
-43.4051 0 -3.42905
4.16353 0 3.47919
-4.40553 0 -2.71569
-18.8492 0 5.43883
31.7775 0 -17.1047
-2.71438 0 -22.6628
9.39675 0 1.32259
-14.5817 0 36.3531
-4.97474 0 -7.94028
4.97474 0 -7.94028
14.5817 0 36.3531
-9.39675 0 1.32259
2.71438 0 -22.6628
-31.7775 0 -17.1047
18.8492 0 5.43883
4.40553 0 -2.71569
-4.16353 0 3.47919
43.4051 0 -3.42905
-9.52323 0 -7.01572
-76.2786 0 -3.61555
78.996 0 142.418
66.7469 0 -66.9564
-40.98 0 -3.8792
35.4191 0 -6.07767
16.2987 0 20.0285
6.28681 0 28.7108
25.1679 0 -27.0211
-26.3064 0 -4.09687
-19.9604 0 -44.0327
40.1485 0 -30.235
-40.7977 0 1.34606
54.0927 0 0.743594
-4.76066 0 1.99623
7.85131 0 12.9067
20.9905 0 5.90053
-33.1496 0 -2.97951
2.67066 0 14.635
5.48234 0 -18.1431
-19.1725 0 -3.0807
3.36319 0 -31.5556
15.5831 0 15.3639
7.21519 0 2.14347
3.51648 0 -4.67064
-22.6034 0 -2.73788
-3.37972 0 -5.05568
-16.9514 0 -2.01233
-3.69548 0 18.0621
-8.4236 0 16.1695
-28.018 0 15.311
18.3593 0 81.5559
-5.0607 0 70.4435
-40.4341 0 -13.1362
38.4861 0 30.972
-3.31842 0 -12.5903
-16.5925 0 6.76741
-51.0322 0 -110.351
53.7985 0 90.6315
85.6676 0 79.9457
-17.8371 0 -74.7164
-0.606284 0 -23.3265
19.0585 0 18.0778
-0.552017 0 -34.1553
8.28646 0 13.5347
-1.97812 0 19.8419
-5.24741 0 6.70954
4.35393 0 5.24122
16.0737 0 8.15196
3.828 0 6.44219
-11.8461 0 -1.83017
11.8461 0 -1.83017
-3.828 0 6.44219
-16.0737 0 8.15196
-4.35393 0 5.24122
5.24741 0 6.70954
1.97812 0 19.8419
-8.28646 0 13.5347
0.552017 0 -34.1553
-19.0585 0 18.0778
0.606284 0 -23.3265
17.8371 0 -74.7164
-85.6676 0 79.9457
-53.7985 0 90.6315
51.0322 0 -110.351
16.5925 0 6.76741
3.31842 0 -12.5903
-38.4861 0 30.972
40.4341 0 -13.1362
5.0607 0 70.4435
-18.3593 0 81.5559
28.018 0 15.311
8.4236 0 16.1695
3.69548 0 18.0621
16.9514 0 -2.01233
3.37972 0 -5.05568
22.6034 0 -2.73788
-3.51648 0 -4.67064
-7.21519 0 2.14347
-15.5831 0 15.3639
-3.36319 0 -31.5556
2.4468 0 3.88081
-19.6594 0 0.853634
3.8655 0 -16.5146
-18.7254 0 -17.0973
30.5362 0 10.1451
-12.6745 0 11.773
3.27286 0 -7.12418
3.82439 0 -33.5087
5.03536 0 -32.6761
-41.0077 0 2.26534
8.73797 0 -46.2709
-7.82096 0 -9.92962
-1.62591 0 35.733
-19.8807 0 2.35098
-96.3175 0 -29.5449
-41.6817 0 -31.9388
18.5241 0 -62.0552
115.998 0 -7.31897
-68.7415 0 -7.82182
15.5708 0 -54.3521
10.0681 0 62.0889
-47.5454 0 -25.9119
23.1629 0 -20.3035
-15.3882 0 47.0314
26.6866 0 -16.2184
-1.11794 0 3.8596
6.24789 0 -9.38232
-11.2955 0 -22.1615
-29.6871 0 -89.9245
-12.5192 0 7.49528
12.5192 0 7.49528
29.6871 0 -89.9245
11.2955 0 -22.1615
-6.24789 0 -9.38232
1.11794 0 3.8596
-26.6866 0 -16.2184
15.3882 0 47.0314
-23.1629 0 -20.3035
47.5454 0 -25.9119
-10.0681 0 62.0889
-15.5708 0 -54.3521
68.7415 0 -7.82182
-115.998 0 -7.31897
-18.5241 0 -62.0552
41.6817 0 -31.9388
96.3175 0 -29.5449
19.8807 0 2.35098
1.62591 0 35.733
7.82096 0 -9.92962
-8.73797 0 -46.2709
41.0077 0 2.26534
-5.03536 0 -32.6761
-3.82439 0 -33.5087
-3.27286 0 -7.12418
12.6745 0 11.773
-30.5362 0 10.1451
18.7254 0 -17.0973
-3.8655 0 -16.5146
19.6594 0 0.853634
-2.4468 0 3.88081
3.71027 0 25.8133
10.7324 0 -3.36489
-16.203 0 3.7682
-7.99784 0 -7.94356
24.7052 0 -4.29455
-16.3729 0 -17.0733
15.1084 0 31.6969
-49.6526 0 46.4619
5.61801 0 10.8431
-20.5003 0 23.8917
37.1443 0 39.8869
11.1666 0 -15.4306
12.4826 0 -48.1153
-37.9524 0 -70.6835
49.7867 0 -22.205
-33.1789 0 -17.2691
52.5134 0 -0.598074
23.4716 0 -1.27931
-16.8478 0 -33.2746
-22.2637 0 -1.30127
-56.8832 0 -72.1518
49.1459 0 41.4695
-176.477 0 -40.6131
97.5761 0 49.8795
97.3061 0 8.31189
-8.29764 0 10.1423
4.85775 0 -3.75134
14.2537 0 19.9875
3.10405 0 87.6156
6.74871 0 -4.7581
-6.74871 0 -4.7581
-3.10405 0 87.6156
-14.2537 0 19.9875
-4.85775 0 -3.75134
8.29764 0 10.1423
-97.3061 0 8.31189
-97.576 0 49.8795
176.477 0 -40.6131
-49.1459 0 41.4695
56.8832 0 -72.1518
22.2637 0 -1.30127
16.8478 0 -33.2746
-23.4716 0 -1.27931
-52.5134 0 -0.598074
33.1789 0 -17.2691
-49.7867 0 -22.205
37.9524 0 -70.6835
-12.4826 0 -48.1153
-11.1666 0 -15.4306
-37.1443 0 39.8869
20.5003 0 23.8917
-5.61801 0 10.8431
49.6526 0 46.4619
-15.1084 0 31.6969
16.3729 0 -17.0733
-24.7052 0 -4.29455
7.99784 0 -7.94356
16.203 0 3.7682
-10.7324 0 -3.36489
-3.71027 0 25.8133
-41.8975 0 -16.4915
23.2532 0 -1.14049
-1.31794 0 22.3513
1.08457 0 3.01902
34.4901 0 19.2367
-29.7024 0 -11.3043
63.7841 0 17.6734
5.46438 0 -22.4301
16.0424 0 -13.9253
9.34383 0 8.63446
3.67923 0 -12.9548
10.7987 0 6.78464
-1.32925 0 25.2693
-18.5128 0 75.2886
3.61601 0 72.7135
-29.3599 0 78.6999
-70.9586 0 -49.6639
0.734054 0 37.6593
140.077 0 -77.9587
-59.0217 0 -74.9821
52.661 0 -4.1752
26.8136 0 70.5369
-30.1454 0 -46.1302
-272.925 0 28.8879
250.652 0 -58.9867
-15.7363 0 2.5173
72.6131 0 -87.2604
-28.9255 0 -25.6182
-57.9163 0 9.87694
55.9791 0 -111.823
-55.9791 0 -111.823
57.9163 0 9.87692
28.9255 0 -25.6182
-72.6131 0 -87.2604
15.7363 0 2.5173
-250.652 0 -58.9867
272.925 0 28.8879
30.1454 0 -46.1302
-26.8136 0 70.5369
-52.661 0 -4.1752
59.0217 0 -74.9821
-140.077 0 -77.9587
-0.734055 0 37.6593
70.9586 0 -49.6639
29.3599 0 78.6999
-3.61601 0 72.7135
18.5128 0 75.2886
1.32925 0 25.2693
-10.7987 0 6.78464
-3.67923 0 -12.9548
-9.34383 0 8.63446
-16.0424 0 -13.9253
-5.46438 0 -22.4301
-63.7841 0 17.6734
29.7024 0 -11.3043
-34.4901 0 19.2367
-1.08457 0 3.01902
1.31794 0 22.3513
-23.2532 0 -1.14049
41.8975 0 -16.4915
-6.45308 0 1.03285
0.37599 0 3.82048
15.7856 0 13.593
-21.8911 0 -1.48412
15.4487 0 -35.5153
-2.85489 0 -6.91991
-23.6066 0 24.1353
10.371 0 4.25384
-2.76916 0 -38.764
-5.28463 0 -48.7881
-21.1991 0 -31.7356
-53.2094 0 -70.6343
-49.7267 0 -54.0756
34.6223 0 -25.5278
-112.163 0 -19.3647
-23.2678 0 -109.57
126.363 0 43.4124
-131.187 0 91.5243
120.723 0 19.3902
83.6862 0 49.2993
51.1747 0 -81.1548
34.4088 0 -1.20339
73.3061 0 36.9897
-35.8432 0 -183.454
-12.4619 0 20.2092
-36.4977 0 96.7161
-13.26 0 -9.45343
-22.2267 0 21.7473
-109.052 0 -5.37693
-16.0753 0 44.5167
16.0753 0 44.5167
109.052 0 -5.3769
22.2267 0 21.7473
13.26 0 -9.45343
36.4977 0 96.7161
12.4619 0 20.2092
35.8432 0 -183.454
-73.3061 0 36.9897
-34.4088 0 -1.2034
-51.1747 0 -81.1548
-83.6862 0 49.2993
-120.723 0 19.3902
131.187 0 91.5243
-126.363 0 43.4124
23.2678 0 -109.57
112.163 0 -19.3647
-34.6223 0 -25.5278
49.7267 0 -54.0756
53.2094 0 -70.6343
21.1991 0 -31.7356
5.28463 0 -48.7881
2.76916 0 -38.764
-10.371 0 4.25384
23.6066 0 24.1353
2.85489 0 -6.91991
-15.4487 0 -35.5153
21.8911 0 -1.48412
-15.7856 0 13.593
-0.37599 0 3.82048
6.45308 0 1.03285
2.53285 0 -8.09156
-26.3108 0 -27.3306
-7.80463 0 -16.045
16.7371 0 15.7931
-13.6342 0 24.8672
-8.68927 0 -29.1617
9.08532 0 -4.40324
-47.3112 0 3.69614
22.1816 0 13.2154
14.7019 0 49.0484
7.44252 0 37.0405
8.84088 0 51.5167
6.34481 0 87.2529
-6.86735 0 60.0315
-7.01118 0 13.4615
18.0486 0 42.2253
96.7165 0 78.5336
-52.1966 0 87.4909
56.0695 0 0.648045
-53.7432 0 -66.2419
-17.8107 0 66.0052
-176.561 0 63.1264
70.5463 0 -64.7025
-278.799 0 -67.293
363.542 0 -42.0579
-16.0645 0 -26.9772
0.860156 0 -2.5426
-48.4838 0 -135.115
-3.87094 0 -5.11854
93.2286 0 8.04231
-93.2285 0 8.04226
3.87093 0 -5.11854
48.4838 0 -135.115
-0.860155 0 -2.5426
16.0645 0 -26.9772
-363.542 0 -42.0579
278.799 0 -67.2931
-70.5463 0 -64.7025
176.561 0 63.1264
17.8107 0 66.0052
53.7432 0 -66.2419
-56.0695 0 0.648043
52.1966 0 87.4909
-96.7165 0 78.5336
-18.0486 0 42.2253
7.01118 0 13.4615
6.86735 0 60.0315
-6.34481 0 87.2529
-8.84088 0 51.5167
-7.44252 0 37.0405
-14.7019 0 49.0484
-22.1816 0 13.2154
47.3112 0 3.69614
-9.08532 0 -4.40324
8.68928 0 -29.1617
13.6342 0 24.8672
-16.7371 0 15.7931
7.80463 0 -16.045
26.3108 0 -27.3306
-2.53285 0 -8.09156
18.5858 0 19.1368
-5.56031 0 23.0626
-4.06874 0 21.5529
-26.4411 0 -5.5252
38.0073 0 -11.9459
-55.1051 0 27.7581
41.9835 0 -12.9169
3.69973 0 -19.7649
-5.06705 0 -2.36605
0.51408 0 -0.411084
2.16686 0 4.32613
-1.34693 0 1.70792
-1.11871 0 0.293639
-14.7765 0 -2.09456
-176.578 0 -22.3794
180.053 0 32.1915
-110.387 0 22.0247
85.8192 0 -275.131
-161.485 0 -77.0234
27.8142 0 -78.6307
-25.1786 0 -45.7814
60.8032 0 -122.086
-43.2377 0 128.229
-302.564 0 -206.51
222.094 0 86.2449
-73.4661 0 -18.122
58.5162 0 19.8374
14.0317 0 -38.2148
-36.0492 0 92.2802
99.5081 0 4.65562
-99.5081 0 4.65563
36.0492 0 92.2802
-14.0317 0 -38.2148
-58.5162 0 19.8374
73.4661 0 -18.122
-222.094 0 86.2449
302.564 0 -206.51
43.2377 0 128.229
-60.8032 0 -122.086
25.1786 0 -45.7815
-27.8142 0 -78.6307
161.485 0 -77.0234
-85.8192 0 -275.131
110.387 0 22.0247
-180.053 0 32.1915
176.578 0 -22.3794
14.7765 0 -2.09456
1.11871 0 0.293639
1.34693 0 1.70792
-2.16686 0 4.32613
-0.51408 0 -0.411084
5.06705 0 -2.36605
-3.69973 0 -19.7649
-41.9835 0 -12.9169
55.1051 0 27.7581
-38.0073 0 -11.9459
26.4411 0 -5.5252
4.06874 0 21.5529
5.56031 0 23.0626
-18.5858 0 19.1368
10.0211 0 -16.5528
-8.52201 0 4.44789
-0.145728 0 -21.6531
-8.34648 0 -0.0571025
21.5427 0 -6.7188
-5.23209 0 -5.69077
2.38408 0 10.5769
2.10316 0 8.351
4.68725 0 4.79378
1.41571 0 -0.105148
0.562629 0 2.30802
-6.95727 0 2.4083
-91.5236 0 -1.69584
10.3707 0 2.22599
82.7539 0 1.33094
-130.54 0 -192.403
-3.04144 0 -17.1913
39.0595 0 247.868
3.1488 0 18.1273
84.5562 0 221.494
-5.71806 0 -198.75
90.7084 0 155.063
-25.5083 0 -27.1382
59.7666 0 0.435486
153.281 0 278.132
-28.2322 0 -56.1826
34.0574 0 -98.5631
-233.426 0 29.1005
197.545 0 73.7458
-49.9754 0 -47.2325
49.9754 0 -47.2325
-197.545 0 73.7458
233.426 0 29.1005
-34.0574 0 -98.5631
28.2322 0 -56.1826
-153.281 0 278.132
-59.7666 0 0.435482
25.5083 0 -27.1382
-90.7084 0 155.063
5.71806 0 -198.75
-84.5562 0 221.494
-3.1488 0 18.1273
-39.0595 0 247.868
3.04144 0 -17.1913
130.54 0 -192.403
-82.7539 0 1.33094
-10.3707 0 2.22599
91.5236 0 -1.69584
6.95727 0 2.4083
-0.562629 0 2.30802
-1.41571 0 -0.105148
-4.68725 0 4.79378
-2.10316 0 8.351
-2.38408 0 10.5769
5.23209 0 -5.69077
-21.5427 0 -6.7188
8.34648 0 -0.0571027
0.145728 0 -21.6531
8.52201 0 4.44789
-10.0211 0 -16.5528
10.1034 0 16.2886
-7.87082 0 -6.39036
-0.0671966 0 21.6281
-6.26897 0 2.0795
24.0881 0 1.90096
-1.69641 0 -20.0229
-0.010625 0 -3.01195
1.82107 0 -3.98825
3.89594 0 6.27534
-40.2157 0 2.78494
-279.255 0 0.788264
306.152 0 1.50769
9.6091 0 1.36152
-59.2957 0 -2.10832
24.3641 0 -0.587238
-7.2598 0 72.1885
119.664 0 101.375
55.651 0 -132.893
-72.4268 0 -61.744
13.5702 0 -70.5082
-142.59 0 -54.9644
16.8906 0 -35.1873
-99.7444 0 -236.816
-80.2441 0 25.8562
-8.01258 0 53.2586
104.411 0 59.8686
-89.2652 0 99.8447
113.788 0 -42.1671
-95.1282 0 -69.768
46.0229 0 -90.5034
-46.0229 0 -90.5034
95.1282 0 -69.768
-113.788 0 -42.1671
89.2652 0 99.8447
-104.411 0 59.8686
8.01259 0 53.2585
80.2441 0 25.8562
99.7444 0 -236.816
-16.8906 0 -35.1873
142.59 0 -54.9645
-13.5702 0 -70.5082
72.4268 0 -61.744
-55.651 0 -132.893
-119.664 0 101.375
7.2598 0 72.1885
-24.3641 0 -0.587238
59.2957 0 -2.10832
-9.6091 0 1.36152
-306.152 0 1.50769
279.255 0 0.788264
40.2157 0 2.78494
-3.89594 0 6.27534
-1.82107 0 -3.98825
0.0106251 0 -3.01195
1.69641 0 -20.0229
-24.0881 0 1.90096
6.26897 0 2.0795
0.0671966 0 21.6281
7.87082 0 -6.39036
-10.1034 0 16.2886
18.3065 0 -29.1844
-7.8676 0 -33.0834
-8.36972 0 -34.7678
-31.2478 0 3.81186
47.0049 0 -51.903
-46.7721 0 -38.9722
43.4872 0 25.7044
4.50281 0 -0.787756
-147.358 0 -10.4923
124.045 0 -68.2162
4.11526 0 -30.773
-185.191 0 -33.1491
206.776 0 24.3847
-113.738 0 -20.2399
121.101 0 -15.7982
36.3777 0 28.091
-42.0147 0 18.5707
56.6628 0 120.561
-32.0624 0 57.1265
-68.1409 0 -13.723
30.6859 0 -42.5772
114.97 0 305.115
-49.0786 0 -94.6417
-33.7202 0 296.126
-4.98623 0 -134.975
31.1598 0 -225.956
-126.678 0 -287.791
-88.5586 0 103.933
35.2512 0 -0.955174
74.4385 0 184.758
-74.4385 0 184.758
-35.2512 0 -0.955178
88.5586 0 103.933
126.678 0 -287.791
-31.1598 0 -225.956
4.98625 0 -134.975
33.7202 0 296.126
49.0786 0 -94.6417
-114.97 0 305.115
-30.6859 0 -42.5772
68.1409 0 -13.723
32.0624 0 57.1265
-56.6628 0 120.561
42.0147 0 18.5707
-36.3777 0 28.091
-121.101 0 -15.7982
113.738 0 -20.2399
-206.776 0 24.3847
185.191 0 -33.1491
-4.11526 0 -30.773
-124.045 0 -68.2162
147.358 0 -10.4923
-4.50281 0 -0.787756
-43.4872 0 25.7044
46.7721 0 -38.9722
-47.0049 0 -51.903
31.2478 0 3.81186
8.36972 0 -34.7678
7.8676 0 -33.0834
-18.3065 0 -29.1844
-33.936 0 -8.08335
-35.9413 0 2.0957
-54.1986 0 26.8194
-3.7079 0 -32.1849
-39.9773 0 80.6514
-216.411 0 -44.1493
333.429 0 -29.7433
-14.3379 0 1.87914
-30.6485 0 -26.79
-95.7598 0 66.8749
81.4782 0 31.0296
5.90457 0 6.30487
13.9082 0 -76.0861
35.8336 0 8.14401
-54.1954 0 -25.8962
2.0434 0 -4.85615
24.1743 0 -5.483
31.9735 0 -123.504
-258.434 0 64.8407
102.568 0 -76.0813
72.7318 0 30.6541
-16.334 0 6.6117
72.5752 0 142.681
-64.4238 0 -24.7566
60.0865 0 251.605
24.8373 0 37.542
146.544 0 99.3186
77.8066 0 -67.0747
-36.3896 0 -0.650846
-218.725 0 -32.7458
218.725 0 -32.7458
36.3896 0 -0.65086
-77.8066 0 -67.0747
-146.544 0 99.3186
-24.8373 0 37.542
-60.0865 0 251.605
64.4238 0 -24.7566
-72.5752 0 142.681
16.334 0 6.6117
-72.7318 0 30.6541
-102.568 0 -76.0813
258.434 0 64.8407
-31.9735 0 -123.504
-24.1743 0 -5.483
-2.0434 0 -4.85615
54.1954 0 -25.8962
-35.8336 0 8.14401
-13.9082 0 -76.0861
-5.90457 0 6.30487
-81.4782 0 31.0296
95.7598 0 66.8749
30.6485 0 -26.79
14.3379 0 1.87914
-333.429 0 -29.7433
216.411 0 -44.1493
39.9772 0 80.6514
3.7079 0 -32.1849
54.1985 0 26.8194
35.9413 0 2.0957
33.936 0 -8.08335
-36.613 0 -27.6756
57.9427 0 53.4842
23.4279 0 -4.08419
35.3311 0 58.761
2.04491 0 -4.64565
-108.097 0 106.624
-104.31 0 35.1617
134.972 0 9.02425
13.3662 0 24.0636
-53.8599 0 8.15418
-103.196 0 -39.9555
81.9951 0 4.12134
-8.07974 0 -48.4965
4.94393 0 -5.15744
-148.648 0 -24.7483
127.482 0 -9.15702
-98.8643 0 -9.17604
12.0707 0 76.6139
-91.2529 0 -120.995
0.354476 0 55.0955
162.565 0 -45.6013
-30.3159 0 8.80946
-87.5434 0 -24.5957
135.204 0 -20.5112
18.5891 0 -35.1619
25.9092 0 -46.5462
-61.5917 0 71.7084
73.866 0 114.875
-21.4345 0 -53.6612
-27.0322 0 24.3598
27.0322 0 24.3598
21.4345 0 -53.6612
-73.866 0 114.875
61.5917 0 71.7084
-25.9092 0 -46.5462
-18.5891 0 -35.1619
-135.204 0 -20.5112
87.5434 0 -24.5957
30.3159 0 8.80946
-162.565 0 -45.6013
-0.354476 0 55.0955
91.2529 0 -120.995
-12.0707 0 76.6139
98.8643 0 -9.17604
-127.482 0 -9.15702
148.648 0 -24.7483
-4.94393 0 -5.15744
8.07974 0 -48.4965
-81.9951 0 4.12134
103.196 0 -39.9555
53.8599 0 8.15418
-13.3662 0 24.0636
-134.972 0 9.02425
104.31 0 35.1617
108.097 0 106.624
-2.04491 0 -4.64565
-35.3311 0 58.761
-23.4279 0 -4.08419
-57.9427 0 53.4842
36.613 0 -27.6756
-62.7382 0 5.1309
62.9294 0 7.43657
16.0714 0 -3.57544
-49.0094 0 -17.0817
21.9877 0 -4.87572
-20.6633 0 -1.8705
8.48898 0 -4.54972
-15.7336 0 -20.3288
-20.5124 0 -59.5925
96.0176 0 -17.1804
-86.6956 0 9.52952
32.2178 0 82.945
-133.232 0 45.5242
65.926 0 43.6118
29.3326 0 -1.38687
49.5666 0 -30.8077
17.3443 0 -28.9272
40.1029 0 62.4793
-0.664227 0 52.2905
55.3072 0 100.203
11.1478 0 15.7079
14.2065 0 -28.6524
30.3299 0 76.9613
-54.7448 0 -27.7539
114.312 0 -59.1965
62.8574 0 -34.4883
17.4201 0 36.7962
-135.219 0 -297.735
108.528 0 -122.036
-50.2377 0 -131.274
50.2376 0 -131.274
-108.528 0 -122.036
135.219 0 -297.735
-17.4201 0 36.7962
-62.8574 0 -34.4883
-114.312 0 -59.1965
54.7448 0 -27.7539
-30.3299 0 76.9613
-14.2065 0 -28.6524
-11.1478 0 15.7079
-55.3072 0 100.203
0.664227 0 52.2905
-40.1029 0 62.4793
-17.3443 0 -28.9272