# vtk DataFile Version 3.0
SiWiRVisFile
ASCII
DATASET UNSTRUCTURED_GRID
POINTS 1600 DOUBLE
76.5107 100 72.2829
74.7543 100 72.3304
75.6963 100 73.04
77.4769 100 72.556
78.8694 100 73.2737
79.7328 100 73.9189
80.7693 100 73.0064
81.7033 100 73.7254
82.8076 100 74.2893
82.6925 100 73.1066
92.6821 100 65.7536
91.491 100 65.6203
92.371 100 66.8713
90.2007 100 65.6713
83.236 100 65.8255
89.9757 100 57.3
91.4296 100 57.009
90.6134 100 54.9398
86.3107 100 48.0205
93.6158 100 52.502
107.678 100 29.9342
107.775 100 27.8647
106.7 100 27.5639
107.671 100 26.8366
106.055 100 28.4788
111.646 100 29.6736
110.831 100 20.667
113.028 100 20.3113
110.27 100 23.2428
111.481 100 22.5519
112.548 100 22.0873
113.412 100 22.7757
111.593 100 21.5327
114.096 100 21.8347
114.784 100 26.9746
118.52 100 28.7247
116.494 100 26.2395
116.784 100 28.0202
115.999 100 28.9598
116.246 100 30.3038
132.734 100 53.5704
138.182 100 48.0205
131.222 100 55.411
133.177 100 56.5931
135.241 100 55.6881
135.441 100 68.1594
133.995 100 65.0588
134.204 100 67.6751
132.721 100 65.1086
133.419 100 66.0528
141.38 100 72.9343
140.647 100 74.3586
141.876 100 73.9592
142.904 100 73.539
144.866 100 73.7018
145.946 100 73.3495
146.887 100 72.8324
148.951 100 73.1773
150.246 100 72.0229
148.197 100 72.4166
73.84 100 72.8629
74.6992 100 73.6973
76.7815 100 73.4414
77.9323 100 73.8858
78.7586 100 74.5194
80.8685 100 74.3901
81.8088 100 74.8216
82.91 100 75.374
83.8888 100 74.5487
85.4932 100 75.3533
86.5248 100 75.3609
92.4183 100 64.5934
91.2637 100 66.7554
91.1722 100 62.6848
90.8957 100 58.3767
91.166 100 64.0071
91.9778 100 55.9834
91.7415 100 54.894
92.8786 100 55.0062
96.4169 100 52.5948
107.198 100 28.7413
95.9532 100 36.5427
106.786 100 40.8369
108.898 100 26.4034
108.814 100 27.4493
111.773 100 28.4202
111.085 100 27.6179
109.942 100 27.2752
106.433 100 17.2233
111.413 100 23.5988
112.438 100 23.2205
118.47 100 17.2994
113.581 100 25.1726
115.419 100 26.1711
115.307 100 28.163
115.918 100 27.1823
114.553 100 24.8142
119.105 100 40.9467
128.541 100 36.5411
117.096 100 29.3954
127.367 100 53.1271
129.368 100 53.7535
132.198 100 52.5798
134.273 100 56.3201
133.406 100 64.1131
134.07 100 57.3009
132.176 100 61.2561
134.555 100 66.5648
131.579 100 64.6355
138.577 100 75.5582
139.644 100 75.3067
140.751 100 75.4167
141.724 100 74.9267
142.82 100 74.5999
143.838 100 74.2753
145.856 100 74.4634
146.826 100 73.9906
147.806 100 73.5111
149.896 100 73.7962
150.682 100 73.0501
73.6875 100 74.1543
74.9399 100 74.7606
75.9096 100 74.1288
76.845 100 74.6867
77.8229 100 75.2356
79.7944 100 75.0196
80.9939 100 75.4806
81.9388 100 75.9404
82.9287 100 76.4137
84.1813 100 75.6047
86.0357 100 76.3073
85.3619 100 77.47
87.8669 100 77.2902
92.1552 100 63.4339
89.75 100 61.6044
93.0566 100 60.6233
92.4608 100 57.0941
93.1235 100 56.1182
93.9476 100 55.0923
95.3047 100 52.9426
97.1664 100 51.7535
104.733 100 41.4007
105.639 100 40.8902
106.584 100 41.9727
97.4145 100 38.5235
107.692 100 41.4816
107.285 100 39.9796
106.23 100 39.8463
111.013 100 24.5594
112.744 100 25.7619
112.589 100 24.7141
113.545 100 24.032
122.161 100 40.4328
117.896 100 38.6377
117.985 100 40.5082
121.1 100 41.156
118.424 100 41.8366
119.655 100 41.8239
120.661 100 42.3132
126.636 100 52.3689
131.264 100 54.1841
130.36 100 54.7486
133.568 100 55.4936
132.391 100 55.7777
132.775 100 59.0969
132.228 100 60.1303
132.268 100 63.5157
136.969 100 76.3042
138.099 100 76.5489
139.304 100 76.4137
140.475 100 76.4618
141.572 100 76.0893
142.688 100 75.6775
143.734 100 75.3
144.813 100 74.9828
146.732 100 75.1575
147.726 100 74.6161
148.782 100 74.2676
149.595 100 74.9802
151.023 100 74.1786
73.8645 100 75.2777
74.8063 100 75.805
75.9185 100 75.3716
76.9461 100 75.8106
79.0199 100 75.8062
80.0576 100 76.1436
81.0792 100 76.6751
82.1238 100 77.2005
83.9044 100 76.8966
84.973 100 76.3232
85.2392 100 78.6336
86.7843 100 77.2156
87.311 100 76.1629
92.2362 100 62.3161
91.2719 100 61.4925
90.4599 100 60.5418
93.1715 100 58.0831
91.9765 100 58.0988
93.6399 100 57.0439
94.8166 100 56.0813
94.741 100 53.913
97.5764 100 52.7217
104.653 100 40.2963
104.887 100 45.3286
105.42 100 42.2837
105.85 100 43.2471
107.997 100 43.5934
110.68 100 43.7146
108.406 100 40.4301
112.101 100 27.1614
114.246 100 26.0777
114.534 100 38.1799
115.265 100 42.5107
116.519 100 42.3278
117.679 100 42.6075
119.745 100 42.9134
118.588 100 43.2692
119.562 100 39.9004
126.266 100 53.3656
129.162 100 54.8945
129.914 100 56.0081
132.037 100 56.8388
131.975 100 58.0083
131.454 100 59.0289
131.129 100 60.2702
131.303 100 62.2613
131.067 100 63.3859
137.526 100 75.2159
138.285 100 77.6567
139.377 100 77.481
140.421 100 77.5755
141.369 100 77.1194
142.403 100 76.8408
143.487 100 76.4765
144.625 100 76.0521
145.651 100 75.6241
147.625 100 75.9192
148.581 100 75.4126
149.57 100 76.047
150.602 100 75.3705
73.9005 100 76.4639
74.8423 100 76.9851
75.8907 100 76.4842
77.9965 100 76.327
78.8954 100 76.8574
79.9328 100 77.4404
81.1074 100 77.8897
82.229 100 78.3033
83.1385 100 77.6702
84.1839 100 78.0501
85.1663 100 79.9932
88.7329 100 78.2286
88.4761 100 76.2642
95.0872 100 59.6145
91.8903 100 60.5141
93.0261 100 59.2733
95.6256 100 58.6206
95.4629 100 57.607
95.0525 100 55.0611
96.2291 100 54.7317
96.3021 100 53.6947
102.946 100 50.0779
105.214 100 44.2932
107.273 100 44.3681
106.853 100 43.263
108.228 100 44.807
109.286 100 44.1491
110.399 100 44.7363
107.829 100 42.552
110.722 100 29.1625
109.921 100 30.031
116.323 100 41.1266
112.807 100 43.6828
114.748 100 44.1775
116.622 100 43.4199
117.382 100 41.5822
117.649 100 43.7267
117.813 100 44.979
122.67 100 49.6332
128.64 100 53.0219
128.132 100 53.9785
128.702 100 56.0297
130.817 100 56.4349
130.834 100 57.9763
129.9 100 58.4988
130.281 100 62.5437
130.611 100 61.3926
137.188 100 77.3839
137.391 100 78.4935
139.628 100 79.6376
140.053 100 78.6389
141.25 100 78.3309
142.329 100 77.8841
143.479 100 77.8345
144.453 100 77.1442
145.569 100 76.7143
146.631 100 76.2399
148.576 100 76.5245
149.604 100 77.1829
150.498 100 76.4798
73.5808 100 77.6205
74.4982 100 78.0523
75.7212 100 77.5963
76.9743 100 76.9933
77.9537 100 77.5504
78.8489 100 78.1578
80.173 100 78.5762
81.1373 100 79.1592
82.2671 100 79.416
83.3009 100 78.8031
84.1557 100 79.3678
86.2944 100 78.2821
88.5858 100 79.4935
88.0354 100 75.2964
89.5042 100 75.808
94.007 100 59.8075
96.207 100 59.5998
97.261 100 58.8952
96.6834 100 57.8665
96.0324 100 55.8884
97.3101 100 54.3247
99.3709 100 53.2111
103.647 100 48.6622
104.971 100 47.9409
106.279 100 44.7429
107.166 100 45.5276
108.353 100 47.3938
109.411 100 45.3305
111.644 100 43.505
111 100 42.5681
114.207 100 42.0624
113.707 100 44.6761
115.74 100 44.4941
115.852 100 45.6424
116.882 100 44.4807
118.931 100 44.4231
118.887 100 45.5819
122.314 100 48.6374
124.909 100 54.3927
127.031 100 54.2389
128.087 100 55.1442
129.872 100 57.1707
128.657 100 58.5376
129.156 100 59.4378
130.446 100 59.4157
135.961 100 75.6965
138.678 100 71.898
136.382 100 79.2177
138.92 100 78.7984
140.83 100 79.3002
142.398 100 78.9568
143.007 100 80.1029
143.473 100 79.1101
144.541 100 78.6729
145.313 100 77.8034
146.367 100 77.6609
147.42 100 77.0372
148.42 100 77.6083
149.393 100 78.2276
150.517 100 77.7409
72.7036 100 78.4061
73.778 100 78.8439
75.8713 100 78.7186
76.8248 100 78.0752
77.7854 100 78.6036
77.9951 100 81.0863
80.1176 100 79.7496
81.2995 100 80.2431
82.3597 100 80.5262
83.31 100 80.0234
85.975 100 80.709
87.4171 100 78.354
89.1268 100 80.5035
88.9724 100 74.4509
94.7506 100 60.9246
94.4205 100 58.7594
95.7828 100 60.5942
98.2969 100 59.4724
96.7537 100 56.6564
97.18 100 55.4956
98.5289 100 53.9318
100.243 100 53.7211
104.323 100 49.841
106.038 100 45.761
109.377 100 47.8659
108.841 100 46.1669
106.105 100 49.9503
109.912 100 46.3106
105.42 100 50.8047
107.258 100 49.7939
118.919 100 51.1536
117.04 100 50.4101
115.043 100 46.8535
116.146 100 50.9843
116.446 100 47.9571
116.411 100 46.7498
116.852 100 45.7502
121.537 100 49.3424
122.379 100 51.6662
126.03 100 54.8838
127.011 100 55.5581
128.735 100 57.2802
127.485 100 58.0988
128.129 100 59.9778
130.032 100 60.4244
129.523 100 61.5433
136.447 100 74.5558
130.492 100 78.7548
137.844 100 79.5026
140.761 100 80.462
141.848 100 80.1196
142.881 100 81.2007
144.1 100 80.1346
145.273 100 79.4758
146.24 100 79.9181
146.11 100 78.7178
147.438 100 78.0834
148.201 100 78.8365
150.269 100 79.0683
151.285 100 78.5443
72.807 100 79.5296
73.8698 100 80.043
74.8499 100 79.2623
75.9554 100 79.7823
76.842 100 79.2288
77.0679 100 80.5008
77.8831 100 79.7802
80.3577 100 80.9271
81.7166 100 81.3238
82.7323 100 81.5934
83.8823 100 81.4769
84.6214 100 82.2499
86.041 100 79.331
86.2878 100 81.9271
85.0699 100 83.3539
90.3408 100 80.0055
95.9213 100 62.8439
97.2722 100 59.9952
99.1264 100 57.5143
98.0666 100 58.2255
98.5835 100 56.2531
98.111 100 54.9208
104.113 100 50.9533
105.321 100 46.894
107.601 100 46.5071
108.44 100 48.5637
107.27 100 47.6637
105.095 100 51.9026
106.136 100 51.711
108.039 100 52.9436
117.903 100 51.343
120.039 100 51.6546
120.741 100 52.7321
117.634 100 48.5343
116.467 100 49.2326
117.35 100 47.1749
117.917 100 46.2301
121.997 100 50.5416
125.024 100 55.6084
127.768 100 56.4897
126.469 100 57.2789
126.481 100 58.4777
127.459 100 59.1442
128.901 100 60.6319
131.404 100 78.0244
140.016 100 82.4369
139.766 100 80.7372
138.76 100 80.2054
140.688 100 81.4713
141.154 100 82.5383
141.819 100 81.1911
144.213 100 81.2535
145.227 100 81.9262
145.123 100 80.4896
147.128 100 80.5161
147.136 100 79.1394
148.221 100 80.0431
149.229 100 79.3822
150.226 100 80.1704
151.142 100 79.68
72.8644 100 80.8284
73.9178 100 81.1666
74.8695 100 80.4178
76.0142 100 80.7908
76.6614 100 82.7095
74.8363 100 84.2074
76.9363 100 81.6349
79.3723 100 81.3525
80.4833 100 82.0921
79.2034 100 82.4985
81.4754 100 82.4198
81.9385 100 83.61
82.8984 100 82.6041
83.8122 100 83.438
86.1522 100 83.1558
89.7405 100 78.5488
97.1161 100 62.5628
97.1978 100 61.3696
99.0859 100 58.7304
100.963 100 57.5667
99.4976 100 54.5931
[...]
POINT_DATA 1600
SCALARS mass double
LOOKUP_TABLE default
1
1
1
1
1
1
1
1
1
1
1
1
1
1
1
1
1
1
1
1
1
1
1
1
1
1
1
1
1
1
1
1
1
1
1
1
1
1
1
1
1
1
1
1
1
1
1
1
1
1
1
1
1
1
1
1
1
1
1
1
1
1
1
1
1
1
1
1
1
1
1
1
1
1
1
1
1
1
1
1
1
1
1
1
1
1
1
1
1
1
1
1
1
1
1
1
1
1
1
1
1
1
1
1
1
1
1
1
1
1
1
1
1
1
1
1
1
1
1
1
1
1
1
1
1
1
1
1
1
1
1
1
1
1
1
1
1
1
1
1
1
1
1
1
1
1
1
1
1
1
1
1
1
1
1
1
1
1
1
1
1
1
1
1
1
1
1
1
1
1
1
1
1
1
1
1
1
1
1
1
1
1
1
1
1
1
1
1
1
1
1
1
1
1
1
1
1
1
1
1
1
1
1
1
1
1
1
1
1
1
1
1
1
1
1
1
1
1
1
1
1
1
1
1
1
1
1
1
1
1
1
1
1
1
1
1
1
1
1
1
1
1
1
1
1
1
1
1
1
1
1
1
1
1
1
1
1
1
1
1
1
1
1
1
1
1
1
1
1
1
1
1
1
1
1
1
1
1
1
1
1
1
1
1
1
1
1
1
1
1
1
1
1
1
1
1
1
1
1
1
1
1
1
1
1
1
1
1
1
1
1
1
1
1
1
1
1
1
1
1
1
1
1
1
1
1
1
1
1
1
1
1
1
1
1
1
1
1
1
1
1
1
1
1
1
1
1
1
1
1
1
1
1
1
1
1
1
1
1
1
1
1
1
1
1
1
1
1
1
1
1
1
1
1
1
1
1
1
1
1
1
1
1
1
1
1
1
1
1
1
1
1
1
1
1
1
1
1
1
1
1
1
1
1
1
1
1
1
1
1
1
1
1
1
1
1
1
1
1
1
1
1
1
1
1
1
1
1
1
1
1
1
1
1
1
1
1
1
1
1
1
1
1
1
1
1
1
1
1
1
1
1
1
1
1
1
1
1
1
1
1
1
1
1
1
1
1
1
1
1
1
1
1
1
1
1
1
1
1
1
1
1
1
1
1
1
1
1
1
1
1
1
1
1
1
1
1
1
1
1
1
1
1
1
1
1
1
1
1
1
1
1
1
1
1
1
1
1
1
1
1
1
1
1
1
1
1
1
1
1
1
1
1
1
1
1
1
1
1
1
1
1
1
1
1
1
1
1
1
1
1
1
1
1
1
1
1
1
1
1
1
1
1
1
1
1
1
1
1
1
1
1
1
1
1
1
1
1
1
1
1
1
1
1
1
1
1
1
1
1
1
1
1
1
1
1
1
1
1
1
1
1
1
1
1
1
1
1
1
1
1
1
1
1
1
1
1
1
1
1
1
1
1
1
1
1
1
1
1
1
1
1
1
1
1
1
1
1
1
1
1
1
1
1
1
1
1
1
1
1
1
1
1
1
1
1
1
1
1
1
1
1
1
1
1
1
1
1
1
1
1
1
1
1
1
1
1
1
1
1
1
1
1
1
1
1
1
1
1
1
1
1
1
1
1
1
1
1
1
1
1
1
1
1
1
1
1
1
1
1
1
1
1
1
1
1
1
1
1
1
1
1
1
1
1
1
1
1
1
1
1
1
1
1
1
1
1
1
1
1
1
1
1
1
1
1
1
1
1
1
1
1
1
1
1
1
1
1
1
1
1
1
1
1
1
1
1
1
1
1
1
1
1
1
1
1
1
1
1
1
1
1
1
1
1
1
1
1
1
1
1
1
1
1
1
1
1
1
1
1
1
1
1
1
1
1
1
1
1
1
1
1
1
1
1
1
1
1
1
1
1
1
1
1
1
1
1
1
1
1
1
1
1
1
1
1
1
1
1
1
1
1
1
1
1
1
1
1
1
1
1
1
1
1
1
1
1
1
1
1
1
1
1
1
1
1
1
1
1
1
1
1
1
1
1
1
1
1
1
1
1
1
1
1
1
1
1
1
1
1
1
1
1
1
1
1
1
1
1
1
1
1
1
1
1
1
1
1
1
1
1
1
1
1
1
1
1
1
1
1
1
1
1
1
1
1
1
1
1
1
1
1
1
1
1
1
1
1
1
1
1
1
1
1
1
1
1
1
1
1
1
1
1
1
1
1
1
1
1
1
1
1
1
1
1
1
1
1
1
1
1
1
1
1
1
1
1
1
1
1
1
1
1
1
1
1
1
1
1
1
1
1
1
1
1
1
1
1
1
1
1
1
1
1
1
1
1
1
1
1
1
1
1
1
1
1
1
1
1
1
1
1
1
1
1
1
1
1
1
1
1
1
1
1
1
1
1
1
1
1
1
1
1
1
1
1
1
1
1
1
1
1
1
1
1
1
1
1
1
1
1
1
1
1
1
1
1
1
1
1
1
1
1
1
1
1
1
1
1
1
1
1
1
1
1
1
1
1
1
1
1
1
1
1
1
1
1
1
1
1
1
1
1
1
1
1
1
1
1
1
1
1
1
1
1
1
1
1
1
1
1
1
1
1
1
1
1
1
1
1
1
1
1
1
1
1
1
1
1
1
1
1
1
1
1
1
1
1
1
1
1
1
1
1
1
1
1
1
1
1
1
1
1
1
1
1
1
1
1
1
1
1
1
1
1
1
1
1
1
1
1
1
1
1
1
1
1
1
1
1
1
1
1
1
1
1
1
1
1
1
1
1
1
1
1
1
1
1
1
1
1
1
1
1
1
1
1
1
1
1
1
1
1
1
1
1
1
1
1
1
1
1
1
1
1
1
1
1
1
1
1
1
1
1
1
1
1
1
1
1
1
1
1
1
1
1
1
1
1
1
1
1
1
1
1
1
1
1
1
1
1
1
1
1
1
1
1
1
1
1
1
1
1
1
1
1
1
1
1
1
1
1
1
1
1
1
1
1
1
1
1
1
1
1
1
1
1
1
1
1
1
1
1
1
1
1
1
1
1
1
1
1
1
1
1
1
1
1
1
1
1
1
1
1
1
1
1
1
1
1
1
1
1
1
1
1
1
1
1
1
1
1
1
1
1
1
1
1
1
1
1
1
1
1
1
1
1
1
1
1
1
1
1
1
1
1
1
1
1
1
1
1
1
1
1
1
1
1
1
1
1
1
1
1
1
1
1
1
1
1
1
1
1
1
1
1
1
1
1
1
1
1
1
1
1
1
1
1
1
1
1
1
1
1
1
1
1
1
1
1
1
1
1
1
1
1
1
1
1
1
1
1
1
1
1
1
1
1
1
1
1
1
1
1
1
1
1
1
1
1
1
1
1
1
1
1
1
1
1
1
1
1
1
1
1
1
1
1
1
1
1
1
1
1
1
1
1
1
1
1
1
1
1
1
1
1
1
1
1
1
1
1
1
1
1
1
1
1
1
1
1
1
1
1
1
1
1
1
1
1
1
1
1
1
1
1
1
1
1
1
1
1
1
1
1
1
1
1
1
1
1
1
1
1
1
1
1
1
1
1
1
1
1
1
1
1
1
1
1
1
1
1
1
1
1
1
1
1
1
1
1
1
1
1
1
1
1
1
1
1
1
1
1
1
1
1
1
1
1
1
1
1
1
1
1
1
1
1
1
1
VECTORS force double
-104.503 0 -20.2864
39.5663 0 -0.819793
-13.25 0 2.74425
111.22 0 42.1803
-18.974 0 -0.911639
28.1206 0 8.22751
1.9379 0 22.0092
29.6753 0 -26.4116
-19.7408 0 -25.2953
-7.28314 0 17.5032
-17.6854 0 -3.27258
6.45327 0 2.89306
1.71226 0 -11.7599
16.3387 0 2.39457
0 0 0
12.1738 0 4.61315
-56.5844 0 4.5253
4.25057 0 2.08964
0 0 0
3.31685 0 1.98802
-4.22697 0 -11.711
30.3813 0 26.1743
13.1198 0 2.48857
4.93142 0 -51.1825
10.6414 0 2.21439
30.3333 0 5.35841
5.49965 0 6.11537
-1.00143 0 3.90185
21.387 0 3.39437
2.65008 0 35.287
-3.31404 0 5.54697
30.5332 0 -0.273467
-0.127868 0 -78.4925
-10.4419 0 6.67697
-10.3853 0 108.193
-5.24731 0 1.32477
21.2146 0 -1.2901
-19.6271 0 8.265
42.1995 0 29.2582
6.44027 0 -18.5218
-4.18268 0 1.92908
0 0 0
20.4537 0 -0.662619
-3.1677 0 -5.19944
-9.70322 0 4.47473
-10.555 0 -5.28607
-12.3608 0 11.2146
11.3996 0 -5.62468
11.783 0 -10.0912
8.94987 0 -7.25287
3.54477 0 9.51011
14.5481 0 -23.4235
15.4608 0 -166.785
11.3017 0 -22.2493
3.86033 0 24.4331
-32.168 0 5.04776
32.1077 0 -0.507869
12.4134 0 15.8517
-3.43804 0 1.92859
-27.8422 0 -4.88356
-21.2795 0 36.9764
13.9452 0 -30.0852
6.16612 0 2.12187
-63.273 0 -26.3662
45.1289 0 37.6472
-97.4042 0 -21.7627
101.883 0 10.3999
7.80177 0 -48.888
-8.57134 0 0.18574
-75.5182 0 -12.4303
81.357 0 -21.8393
-14.4714 0 2.84236
-3.14842 0 -12.8321
9.97494 0 5.11227
-3.32398 0 -11.325
13.0822 0 -5.57731
14.273 0 12.7753
4.11801 0 0.188374
-33.0736 0 10.4248
1.97278 0 -0.996466
-31.8049 0 32.1293
0.128965 0 0.174811
-79.3992 0 123.073
-0.940282 0 -31.388
-8.83943 0 36.7065
14.6152 0 34.3391
-36.7599 0 -24.3711
-0.926583 0 -1.32504
0 0 0
1.02262 0 -4.33242
-11.5672 0 8.0171
0 0 0
18.3261 0 -22.5734
14.9654 0 -61.666
-18.1793 0 -45.5346
-6.42357 0 17.8871
42.3991 0 -12.2504
-39.7981 0 -56.0622
0 0 0
-15.5151 0 -4.86476
39.2845 0 39.7761
36.4677 0 61.6828
-0.28727 0 2.16408
35.9313 0 -106.637
-19.5485 0 3.13695
-28.4017 0 109.606
-17.1403 0 1.97202
-14.1419 0 0.557649
14.5642 0 -14.2919
-1.28217 0 -0.848913
14.9881 0 6.06714
-23.8506 0 1.79364
-12.1107 0 177.802
-28.1836 0 26.8529
39.347 0 -74.7316
-35.6673 0 16.1582
9.75605 0 2.17126
28.2289 0 -13.8279
-17.2004 0 30.3869
12.3755 0 1.13625
7.63805 0 -1.70756
4.30177 0 -26.0959
-29.699 0 12.0962
12.7146 0 -5.42991
53.2258 0 -39.4236
21.3831 0 4.62634
-83.6362 0 27.7276
28.5348 0 24.3257
2.06707 0 59.7706
-24.8597 0 2.35421
34.3882 0 48.5829
2.55468 0 -0.824822
25.7767 0 -5.20071
-11.7654 0 5.95558
13.4785 0 -9.0205
1.46439 0 -16.7999
77.2383 0 -6.72375
-21.3845 0 -33.0433
21.4842 0 13.5148
16.5908 0 5.29873
-17.2434 0 -35.7085
-44.7496 0 30.7056
57.9894 0 -26.1622
2.93565 0 5.10566
-0.128965 0 -0.174811
-6.45387 0 -25.3626
109.438 0 -106.337
-35.7205 0 11.2311
-17.2303 0 42.9629
-52.7735 0 80.2823
-13.4791 0 -52.115
-7.80647 0 0.560703
-9.69304 0 6.69334
0.601973 0 1.82014
8.01702 0 21.9496
-0.294063 0 6.05546
49.8651 0 -9.76401
18.6526 0 36.9792
12.4253 0 -16.8113
-15.2017 0 -54.5331
26.7045 0 -4.42176
-55.9116 0 14.1705
-21.5653 0 1.07698
-0.199895 0 -4.99401
-21.7877 0 -0.629674
0.69033 0 -15.4188
-8.6925 0 12.6832
-4.49848 0 -16.0794
-7.09393 0 9.194
-0.0737661 0 -25.6363
-17.0237 0 7.29646
35.9379 0 -32.064
-25.4059 0 22.9349
-3.49037 0 76.2754
-27.4642 0 -57.1051
3.8432 0 -13.8088
7.32428 0 28.7758
-12.2479 0 -9.346
8.14779 0 -35.6663
-20.787 0 0.230068
-4.26931 0 -7.87484
33.0543 0 59.0849
-11.5904 0 -17.9619
-36.9243 0 43.0937
-28.0254 0 -44.6623
12.3851 0 11.6717
-2.77906 0 4.63945
-18.8672 0 -14.9799
37.6394 0 -8.15748
-21.2493 0 41.4179
-45.3815 0 -18.4296
-22.6111 0 0.561898
-1.18701 0 20.1823
-10.0717 0 -9.5248
0.0549832 0 3.76942
9.01044 0 18.5748
-10.5288 0 0.995892
9.90268 0 -7.31415
8.20724 0 29.7453
-9.75114 0 38.9235
4.05873 0 16.5744
7.88299 0 47.2613
8.88001 0 -2.05601
13.5473 0 19.4811
0.458469 0 -43.0026
-98.892 0 41.5965
26.0753 0 25.5238
-146.015 0 -6.4968
-20.8063 0 6.75323
1.4396 0 4.94691
-16.116 0 -50.619
0 0 0
10.5236 0 -1.11175
1.56854 0 -17.5372
-26.5903 0 45.5038
-22.6586 0 19.421
54.4816 0 -21.4319
-4.39298 0 6.96269
-6.05873 0 41.1433
12.9625 0 3.27101
-120.511 0 -63.6939
-6.79968 0 4.07296
-1.35919 0 2.35715
22.7995 0 -2.18978
9.00428 0 12.9889
40.0742 0 -6.157
12.0999 0 -1.14332
-20.6808 0 10.9062
-8.92598 0 15.3941
-32.5564 0 30.2434
6.66091 0 22.8763
15.5107 0 50.3539
37.2019 0 -59.892
13.8689 0 -0.448181
-16.4078 0 12.5086
49.0848 0 0.741393
25.3855 0 -18.951
10.4627 0 -16.9549
-61.7335 0 -14.8874
7.74253 0 -2.53496
-18.7567 0 -6.97125
-1.06492 0 -14.61
3.11293 0 -0.829834
-53.6783 0 -7.7658
46.2512 0 74.2127
1.82049 0 -4.23397
3.74862 0 -2.45313
-10.6291 0 10.0301
-9.04322 0 0.680352
13.5518 0 6.86186
-31.5524 0 -21.3112
-46.4399 0 -18.3279
5.43815 0 43.4387
22.8398 0 26.3826
-0.266596 0 6.40778
1.52362 0 -5.68628
13.1389 0 72.1716
-1.25528 0 -69.508
34.3648 0 -50.8671
-2.90473 0 69.2789
1.63515 0 -49.0627
15.9309 0 -0.896801
20.4744 0 -20.1992
-35.884 0 -6.1362
131.729 0 -0.288416
46.4931 0 16.5146
-0.493505 0 17.4532
-25.2167 0 31.3151
-22.221 0 -14.318
-27.8912 0 -21.6717
8.52542 0 -7.84806
9.21176 0 16.4888
-2.45529 0 5.55417
-53.7416 0 -14.645
-23.3768 0 -9.84001
-32.0065 0 -39.7337
1.33871 0 26.6971
42.0795 0 24.3416
1.29663 0 33.6092
-49.4529 0 -55.9866
2.80682 0 24.4925
74.6694 0 -5.40613
112.297 0 72.3013
22.7394 0 -10.4882
-52.5937 0 -12.0317
-30.1465 0 -7.64159
11.5204 0 -7.4465
-2.38691 0 6.2957
-10.579 0 -11.1825
64.2394 0 -14.3402
-52.9118 0 -76.7366
21.532 0 -39.5868
-14.2091 0 20.562
3.46432 0 0.724887
-19.1474 0 -3.45011
-0.0445135 0 14.5627
-61.6159 0 34.0634
-5.94321 0 6.5794
-34.8893 0 -48.2932
61.5897 0 46.9485
-76.9726 0 -34.315
115.852 0 29.3182
27.5528 0 21.3432
-4.22758 0 -27.7964
-14.6284 0 -49.7167
24.7379 0 -2.15331
-1.96644 0 -5.18078
4.35861 0 -19.6231
3.17959 0 5.11125
-75.2098 0 -38.464
98.8021 0 13.5296
3.04983 0 -36.7522
7.89623 0 -12.6214
-6.27198 0 -30.2644
-9.38309 0 4.45343
-9.33693 0 16.417
18.4141 0 -26.3585
-41.6936 0 23.3105
-8.43482 0 4.64147
-34.5035 0 -45.7567
-104.599 0 -74.4125
-82.6495 0 -43.7577
13.6697 0 11.0495
2.29252 0 4.90233
-20.0259 0 -35.2056
-14.4095 0 -33.6385
1.89345 0 -8.57487
43.1714 0 -103.924
157.139 0 -32.6741
-0.633989 0 14.0053
5.87026 0 3.14412
0.226108 0 -10.5647
62.8152 0 17.2456
-102.023 0 -6.45376
-51.0379 0 23.8562
-20.4974 0 -2.50022
-22.5471 0 -47.1898
19.9504 0 -60.6882
15.0089 0 15.3048
-2.38363 0 7.16959
-30.1538 0 -18.8365
10.9008 0 2.51189
-39.6176 0 -65.8902
46.6176 0 72.1481
-15.3431 0 5.19745
15.2796 0 5.43328
0 0 0
107.759 0 30.2028
-16.3809 0 -12.5876
44.9759 0 101.497
-23.1934 0 31.7682
-26.7865 0 -3.08828
30.0046 0 -11.8717
-15.5365 0 -19.1526
-15.5197 0 30.5792
43.1358 0 -34.5718
5.54938 0 -44.795
18.6684 0 12.0267
-2.45071 0 39.4118
4.20075 0 12.8564
16.969 0 -1.4918
-25.4403 0 23.8974
-16.0568 0 -35.8211
-14.7206 0 7.1264
6.78562 0 38.6475
3.37006 0 -11.1288
21.2624 0 2.25322
-12.2814 0 7.27031
37.3377 0 -41.0817
-10.2728 0 -6.37257
16.3607 0 15.3929
7.09751 0 -14.298
12.7833 0 -6.61892
-6.89551 0 15.8131
-19.8946 0 -14.5415
-7.37585 0 -17.5595
8.20588 0 1.18544
-40.966 0 -4.07077
27.5163 0 29.6731
-29.126 0 4.31168
-0.139777 0 -11.8746
78.5583 0 54.7269
-8.66935 0 2.36359
-13.178 0 56.4446
-8.77661 0 -0.81105
-89.8339 0 84.2487
-12.1511 0 -36.5603
18.8864 0 9.14008
-8.17434 0 14.2484
-9.5322 0 3.70806
71.4371 0 2.85676
30.2379 0 -18.3098
15.3797 0 -5.64921
-23.6157 0 15.0219
17.4855 0 -4.45337
-73.415 0 -16.4718
129.585 0 -11.4595
-22.9494 0 47.4745
11.3069 0 -10.8002
-1.3645 0 0.45293
3.53584 0 -7.76286
-7.03871 0 -4.57775
31.321 0 -62.5346
-52.182 0 -37.0535
-26.6485 0 16.1208
5.54602 0 3.50991
6.10442 0 19.1665
4.25633 0 43.3345
13.4088 0 -0.151949
74.3143 0 -120.12
3.26888 0 -36.0098
12.8927 0 -21.6104
-3.25854 0 -21.0355
-13.2155 0 -71.6366
7.31562 0 -52.8868
-13.1314 0 13.343
-35.1108 0 25.6994
39.6787 0 14.4148
-13.018 0 -45.7221
-5.13889 0 10.4561
19.9271 0 7.79705
-33.0837 0 -24.6569
-0.515422 0 1.6986
-54.537 0 -40.2866
59.0541 0 -12.3142
-19.6896 0 -10.259
0.560465 0 -13.3938
35.1851 0 -12.9986
-100.062 0 41.6835
29.848 0 -64.9258
-30.5173 0 -18.4805
19.5244 0 34.8279
25.9086 0 38.5111
-11.356 0 3.12526
-7.14447 0 -27.3824
12.2697 0 -132.302
17.6842 0 1.82104
7.61117 0 21.4423
-9.80377 0 9.68584
41.3386 0 -23.2049
1.41805 0 -3.26618
109.137 0 94.5385
11.9072 0 4.90912
24.6635 0 -10.2894
75.2818 0 14.5939
-0.993768 0 -16.9604
20.2434 0 24.6961
-9.40931 0 -13.37
17.248 0 11.8483
-29.4268 0 -37.8147
-61.5921 0 12.446
5.15238 0 -0.0580918
-14.1087 0 -4.84456
-17.0548 0 -11.8541
12.7459 0 -5.50028
45.2692 0 39.8351
2.97447 0 -18.356
-16.81 0 5.57099
5.63879 0 -16.1311
-46.7708 0 19.089
13.781 0 15.6847
-8.76445 0 -8.10578
-20.1506 0 20.3088
72.4373 0 44.9866
-8.60712 0 11.7233
6.61787 0 5.49661
-53.3828 0 25.7869
-47.066 0 20.1975
-6.17664 0 101.559
7.19464 0 -2.19615
-42.8915 0 32.6904
3.64531 0 5.15593
7.04669 0 -18.478
8.90782 0 85.2829
50.5945 0 8.35971
-6.59647 0 29.3438
-43.6665 0 -29.224
-20.6967 0 12.7635
-53.1404 0 43.0891
70.3124 0 -4.58907
7.08285 0 -17.1724
0.718036 0 -42.3254
36.6313 0 16.9921
-10.1423 0 108.37
2.27945 0 26.0265
-11.2465 0 -29.865
29.7655 0 -22.4001
-25.3244 0 22.0353
-57.5666 0 -19.8889
8.98522 0 -3.18007
53.0298 0 32.5183
17.0596 0 -44.7897
11.7243 0 80.9365
10.3693 0 1.57261
25.5968 0 -23.122
29.002 0 12.3864
-56.0435 0 -50.3292
-52.0892 0 28.4823
16.1052 0 -15.6476
10.2639 0 -13.5249
-11.967 0 -4.62148
-24.5145 0 -1.7704
9.11409 0 4.6105
-3.70079 0 -16.6813
4.76016 0 11.4382
-94.8878 0 -17.3705
17.395 0 0.531912
-3.38422 0 12.4905
-3.80445 0 -15.6743
21.1075 0 11.9762
10.3213 0 12.9473
-24.9508 0 -43.5364
35.7909 0 -6.61058
-14.3032 0 6.27959
3.37937 0 -10.3685
-43.5587 0 38.3642
-9.51829 0 46.1051
3.10294 0 12.9698
-34.5695 0 -10.0325
-53.0791 0 27.9125
-14.4607 0 2.29057
-2.78527 0 8.00757
-4.89992 0 -13.3254
18.9977 0 4.22093
9.79747 0 -15.0612
0.301698 0 20.5976
89.5631 0 -61.9572
-21.7434 0 -59.271
-5.26807 0 -17.5398
42.2264 0 -37.7061
58.9216 0 -36.9484
-51.8178 0 -40.9
-17.7061 0 65.5605
32.0313 0 -23.4167
-19.6328 0 31.3264
-58.419 0 -2.57407
-51.1851 0 31.8556
95.6585 0 -16.8559
53.9162 0 -67.2665
-18.8175 0 -3.44451
10.0292 0 15.749
17.7731 0 21.0481
0.0182388 0 -14.4072
15.8586 0 9.85486
-19.4224 0 8.06747
-3.81654 0 15.0876
-9.95929 0 40.0806
2.38846 0 3.83769
-8.1298 0 1.71339
-26.4827 0 0.680819
-3.3638 0 6.53173
44.721 0 -21.775
-5.20984 0 15.6308
-5.09718 0 4.43686
-7.45671 0 29.0316
7.79427 0 -3.87863
0.492281 0 -14.0515
-8.62162 0 2.18839
-1.19073 0 14.1636
9.80904 0 2.04182
64.7089 0 -39.4925
-18.0121 0 15.7465
-7.77951 0 -7.20392
-1.03006 0 -16.4132
-1.2669 0 -9.17452
1.90384 0 6.23456
-33.3791 0 -16.704
8.37786 0 34.8247
-6.40224 0 -3.2367
-9.54808 0 -2.24966
12.1968 0 -6.16348
19.0293 0 -85.3968
5.575 0 20.8604
1.22319 0 -28.9995
-18.0531 0 10.0705
9.71616 0 -4.28598
-2.86048 0 8.61351
48.0081 0 -29.6631
0.640294 0 -20.0325
-5.42031 0 -12.3207
18.6646 0 6.55944
9.76561 0 -9.92451
21.921 0 -3.03332
9.43466 0 17.2448
13.0123 0 -21.1646
4.53732 0 -1.55495
-20.2868 0 48.7592
-8.38422 0 7.30795
-5.13706 0 39.0625
-106.183 0 89.0744
19.5026 0 26.1911
-28.5772 0 1.37616
-28.4578 0 -30.464
16.1193 0 20.9019
64.0042 0 -52.8804
-3.74667 0 -28.3063
52.0326 0 10.1299
-97.3023 0 38.5462
-8.0554 0 -6.21544
28.3191 0 12.5463
1.40636 0 9.9931
3.20337 0 3.45192
-21.521 0 -4.49107
-48.6768 0 -31.3548
29.9869 0 29.1295
19.1586 0 -10.2924
25.7286 0 -50.6234
12.0455 0 -31.0645
10.8754 0 -5.83034
-91.6207 0 11.4738
67.7711 0 9.86081
-38.8833 0 15.6942
14.8795 0 -1.86011
13.7608 0 -28.3895
2.69029 0 7.61083
-9.2819 0 15.4889
15.3731 0 22.097
38.8319 0 6.21894
-11.6163 0 -3.32769
-6.21366 0 -5.96338
7.20157 0 46.6707
-10.178 0 4.32721
-13.9412 0 -7.33697
19.9725 0 -3.77265
-4.68216 0 6.94789
-49.5666 0 22.2536
-50.4453 0 18.4164
6.95003 0 -15.3262
-0.0761483 0 -13.6605
-4.5462 0 10.8907
-8.52875 0 14.0151
4.73608 0 13.1506
15.0108 0 18.5762
-45.214 0 5.93627
5.77347 0 -78.1631
7.43577 0 33.3035
91.8042 0 -7.09282
-7.94014 0 22.3669
-46.0094 0 -61.4352
0.756636 0 -10.5987
-42.1724 0 11.8291
8.04249 0 1.42568
-30.4904 0 4.91208
-89.9179 0 -39.9723
-1.01808 0 -20.9177
-55.1733 0 66.3039
16.744 0 2.19542
15.3112 0 -101.66
-1.45 0 75.5294
-11.839 0 3.74295
-12.8006 0 -88.2764
-33.9523 0 -13.3123
81.9986 0 5.20572
-1.2869 0 1.31075
-20.9032 0 17.4342
20.0455 0 8.7513
-9.16876 0 21.7106
74.6983 0 9.45719
-5.92376 0 -1.34692
3.08487 0 5.02614
-54.0244 0 -29.5652
-57.8402 0 -11.783
90.4413 0 -37.2288
18.0167 0 13.6957
-35.4077 0 26.6566
17.1621 0 -6.97358
44.7142 0 78.74
-10.3222 0 -76.7928
8.5753 0 23.0201
2.07577 0 8.4456
41.7003 0 -6.18276
-8.23137 0 -31.1104
-12.6471 0 -53.7809
11.8264 0 23.4926
-14.1 0 -6.80073
5.59369 0 -17.0493
-24.9177 0 1.10017
-40.6517 0 0.693652
24.7448 0 -5.5324
11.8551 0 -12.1785
-21.678 0 -21.752
26.3882 0 -22.5903
42.3664 0 -5.00547
3.75126 0 16.0854
-36.5881 0 -45.0381
-7.03805 0 -4.5449
44.2493 0 52.0292
31.9172 0 -36.1972
22.0954 0 17.1565
-2.37381 0 -13.7683
-13.5007 0 9.12168
-11.3769 0 -6.3466
-23.8687 0 64.7408
-2.98737 0 10.2651
11.6237 0 -8.20901
5.93042 0 -7.62426
-2.89751 0 -60.2413
68.067 0 65.4419
0.119915 0 -5.96009
-19.6152 0 -18.1639
-15.3852 0 5.17307
-11.6792 0 3.55089
-27.3526 0 8.18131
-7.63545 0 15.4706
-24.209 0 -19.0035
-8.01361 0 -9.47749
16.557 0 -14.7144
33.1487 0 4.13668
-61.0995 0 -24.7204
15.0416 0 -23.6689
-40.9781 0 -43.7264
-12.0782 0 1.31691
29.078 0 20.4229
-1.83985 0 -8.75501
0.218448 0 -7.51849
-4.0428 0 -5.03475
-82.4864 0 -20.3101
-1.68728 0 0.289895
-4.31324 0 -9.7925
-10.5093 0 6.63373
-16.6996 0 34.9279
51.0847 0 11.9966
27.5962 0 8.88523
-3.83028 0 60.2978
-37.6525 0 -42.976
-5.14616 0 -4.29731
-10.7474 0 -31.6354
1.13773 0 31.8852
-11.909 0 -70.5235
1.989 0 -4.57105
-18.6892 0 -16.8513
-5.26317 0 -9.79885
-2.16727 0 30.5618
10.8332 0 16.7773
-5.19761 0 -3.33602
-15.1305 0 -5.35187
15.7303 0 3.72427
-10.3608 0 -59.141
-9.951 0 23.0438
25.7625 0 2.2492
-7.97135 0 11.2621
-0.893235 0 37.5051
-18.9288 0 53.8625
7.46377 0 -58.8814
-1.64631 0 -3.71649
-40.5854 0 45.1448
-0.411996 0 -37.0912
62.3131 0 -14.8625
15.2775 0 1.6595
21.6227 0 21.9211
10.1596 0 10.0289
5.45739 0 71.5111
15.419 0 -6.54292
15.4419 0 7.41203
9.13826 0 -0.635988
-11.861 0 -44.7101
-5.11197 0 -14.5432
-6.12362 0 -1.03919
9.8336 0 -7.76559
-14.1177 0 -4.50997
39.0983 0 -22.3702
-2.80829 0 -20.514
-12.127 0 7.95779
17.7475 0 12.9729
5.8989 0 -11.7351
9.32461 0 8.87601
2.42166 0 -19.5621
9.17062 0 -6.65362
63.2555 0 2.93122
61.6982 0 63.0742
-11.0452 0 24.4202
-17.5131 0 2.06735
7.95173 0 -4.46965
46.4909 0 -3.90222
10.2513 0 13.7738
10.2156 0 16.7556
-67.2768 0 8.45183
21.8274 0 -60.8759
37.8283 0 12.4787
-2.48734 0 4.67403
-41.4951 0 -43.2941
-13.6206 0 -0.888535
17.1555 0 4.80834
-2.6607 0 0.0865318
-2.07475 0 -0.0608556
42.575 0 51.3239
13.7581 0 49.4691
2.65421 0 0.39882
30.7053 0 14.6956
-16.5241 0 15.4238
-4.68384 0 16.0399
79.008 0 1.61121
-93.6062 0 7.66044
-1.28177 0 -19.8367
8.73739 0 -16.3187
-22.1182 0 3.6965
-5.17954 0 0.73429
-1.9839 0 -6.71314
-2.2301 0 41.9356
-13.5667 0 -4.53105
-11.2593 0 -14.1877
1.99402 0 17.1808
12.3485 0 -15.4547
-15.6597 0 18.8081
0.22075 0 17.4659
-4.31034 0 -4.26264
15.1065 0 7.30685
-46.5837 0 -35.5531
-10.7768 0 0.279477
6.43184 0 12.6749
11.7222 0 12.1606
-17.35 0 -23.4182
-6.25628 0 76.2797
0.126482 0 -20.7679
-23.0012 0 38.7562
34.2491 0 54.5295
56.3744 0 13.6686
-6.48308 0 -4.87629
11.9958 0 -32.2417
21.7801 0 9.59341
-19.9039 0 3.98081
12.2396 0 -70.9217
14.8941 0 -0.499468
-1.26653 0 5.15901
17.5942 0 -43.6691
-8.49764 0 -4.67883
-2.2042 0 -31.808
-59.5955 0 30.6195
-48.1139 0 76.6789
32.8043 0 -56.8335
49.0008 0 14.2107
-1.24744 0 -5.22441
-35.6924 0 -41.4241
-47.7366 0 -62.7626
-12.7093 0 -14.2559
8.125 0 -1.96886
-34.6574 0 11.2186
-2.51246 0 3.60919
-11.3372 0 10.617
0.954057 0 9.46524
5.80731 0 10.6449
51.3917 0 19.6958
11.9416 0 -21.338
-2.89508 0 -6.82838
-7.60594 0 -29.9094
-107.722 0 -82.6051
-4.21312 0 50.448
-22.3591 0 105.738
20.4544 0 -113.02
-13.1828 0 -16.0731
15.0047 0 -29.2335
8.78147 0 5.70578
-10.9024 0 -6.92921
-3.42708 0 4.63725
13.0166 0 6.96263
-2.15976 0 2.58682
-8.97024 0 -11.268
-0.832062 0 17.4848
11.0227 0 4.15855
13.3348 0 -9.0492
-8.01582 0 -9.76175
-3.52704 0 -5.03853
-6.69963 0 -20.0596
4.18047 0 -6.85037
-2.0908 0 -3.01522
-6.77973 0 17.3605
-16.3222 0 4.5393
0.0683603 0 1.01575
-3.31252 0 -11.3972
9.30383 0 2.15926
7.22914 0 -14.5949
-18.9513 0 2.43425
7.17296 0 53.746
0.513863 0 -32.1474
-16.1194 0 26.3654
17.3205 0 -25.493
-0.185404 0 -13.87
1.73427 0 -12.0597
0.390163 0 24.2074
-34.2631 0 40.4914
9.78927 0 6.81876
-10.2465 0 12.4958
-9.30482 0 0.353049
-20.6984 0 91.708
115.757 0 124.195
30.7733 0 -52.4215
35.5936 0 135.122
-30.0574 0 -13.4189
-31.4244 0 -128.952
-50.6622 0 8.70355
-2.97891 0 -8.30047