# vtk DataFile Version 3.0
SiWiRVisFile
ASCII
DATASET UNSTRUCTURED_GRID
POINTS 1600 DOUBLE
78.1099 100 75.2476
79.3043 100 75.679
80.4002 100 76.0046
82.2221 100 75.5334
83.4147 100 75.645
84.5309 100 75.825
85.8375 100 75.7914
86.9018 100 76.1282
87.9493 100 76.3259
89.1367 100 76.513
90.3123 100 76.5516
91.2106 100 77.3542
91.351 100 75.8943
92.3476 100 74.9377
92.9206 100 73.9372
94.8231 100 73.0497
96.0923 100 72.3808
97.24 100 72.7917
97.0249 100 71.4672
99.6902 100 72.7527
104.048 100 64.2711
103.109 100 66.6306
103.402 100 65.5274
104.653 100 65.3846
105.226 100 64.4722
106.299 100 64.3736
108.803 100 64.3821
109.596 100 63.6155
110.7 100 63.4705
111.494 100 62.7636
112.998 100 62.7636
113.792 100 63.4705
114.897 100 63.6155
115.69 100 64.3821
118.193 100 64.3736
119.266 100 64.4722
119.839 100 65.3846
121.09 100 65.5274
121.383 100 66.6306
120.444 100 64.2711
124.802 100 72.7527
127.468 100 71.4672
127.252 100 72.7917
128.4 100 72.3808
129.669 100 73.0497
131.572 100 73.9372
132.145 100 74.9377
133.141 100 75.8943
133.282 100 77.3542
134.18 100 76.5516
135.356 100 76.513
136.543 100 76.3259
137.591 100 76.1282
138.655 100 75.7914
139.962 100 75.825
141.078 100 75.645
142.27 100 75.5334
144.092 100 76.0046
145.188 100 75.679
146.382 100 75.2476
78.4556 100 76.3088
79.6152 100 76.734
81.4359 100 76.3618
82.5775 100 76.5913
83.7264 100 76.6908
84.8929 100 76.9346
86.0037 100 76.8999
87.1499 100 77.2046
88.2956 100 77.4297
89.3389 100 77.6383
90.3751 100 78.0611
91.4357 100 78.4398
92.3785 100 76.6921
93.0122 100 75.7519
94.1795 100 75.6345
94.0737 100 74.4918
95.8879 100 73.4124
98.5005 100 72.5087
99.5156 100 73.8032
100.965 100 72.0276
102.323 100 65.8343
101.064 100 70.0759
104.102 100 69.839
108.175 100 66.72
105.866 100 65.4234
106.97 100 65.1562
108.319 100 65.6477
109.408 100 65.3792
110.218 100 64.6592
111.646 100 64.3307
112.847 100 64.3307
114.274 100 64.6592
115.084 100 65.3792
116.173 100 65.6477
117.523 100 65.1562
118.627 100 65.4234
116.317 100 66.72
120.39 100 69.839
123.429 100 70.0759
122.169 100 65.8343
123.528 100 72.0276
124.977 100 73.8032
125.992 100 72.5087
128.604 100 73.4124
130.419 100 74.4918
130.313 100 75.6345
131.48 100 75.7519
132.114 100 76.6921
133.057 100 78.4398
134.117 100 78.0611
135.154 100 77.6383
136.197 100 77.4297
137.343 100 77.2046
138.489 100 76.8999
139.599 100 76.9346
140.766 100 76.6908
141.915 100 76.5913
143.057 100 76.3618
144.877 100 76.734
146.037 100 76.3088
78.7919 100 77.4282
79.7519 100 77.9152
80.6894 100 77.1619
81.7455 100 77.5335
82.8977 100 77.6179
84.0143 100 77.7671
85.2245 100 78.0241
86.3514 100 78.0532
87.391 100 78.3592
88.6023 100 78.6064
89.6775 100 78.9294
90.7523 100 79.3478
92.0651 100 79.5311
92.4341 100 77.8823
94.6589 100 76.9493
95.2197 100 75.8341
95.5925 100 74.811
96.6671 100 74.3401
97.959 100 74.0922
100.686 100 73.2354
102.276 100 72.0735
103.048 100 70.2776
104.821 100 70.7786
106.125 100 70.2704
107.206 100 69.2496
108.063 100 71.1405
109.418 100 70.4382
107.908 100 70.0265
110.457 100 65.9292
111.549 100 65.3651
112.943 100 65.3651
114.035 100 65.9292
116.585 100 70.0265
115.074 100 70.4381
116.429 100 71.1405
117.286 100 69.2496
118.367 100 70.2704
119.672 100 70.7786
121.444 100 70.2776
122.217 100 72.0735
123.806 100 73.2354
126.533 100 74.0922
127.825 100 74.3401
128.9 100 74.811
129.273 100 75.8341
129.833 100 76.9493
132.058 100 77.8823
132.427 100 79.5311
133.74 100 79.3478
134.815 100 78.9294
135.89 100 78.6064
137.101 100 78.3592
138.141 100 78.0532
139.268 100 78.0241
140.478 100 77.7671
141.595 100 77.6179
142.747 100 77.5335
143.803 100 77.1619
144.74 100 77.9152
145.7 100 77.4282
78.8012 100 78.5587
79.8779 100 78.9981
80.89 100 78.2822
82.0789 100 78.5816
83.3153 100 78.6801
84.5372 100 78.8782
85.6831 100 78.992
86.7552 100 79.166
87.8237 100 79.4063
88.8943 100 79.8153
89.9688 100 80.0289
91.1691 100 80.3211
92.426 100 80.5806
93.461 100 78.6485
93.5885 100 77.4586
95.6422 100 77.623
96.1927 100 76.2557
97.085 100 75.4148
98.2715 100 75.3295
99.5228 100 74.8842
100.604 100 74.2861
102.02 100 73.1336
103.647 100 72.0414
104.849 100 71.9117
106.17 100 71.4763
107.082 100 70.8452
108.869 100 71.9957
109.96 100 72.1837
110.239 100 69.7948
111.47 100 66.5929
113.022 100 66.5929
114.254 100 69.7948
114.533 100 72.1837
115.624 100 71.9957
117.41 100 70.8452
118.323 100 71.4763
119.644 100 71.9117
120.845 100 72.0414
122.472 100 73.1336
123.889 100 74.2861
124.97 100 74.8842
126.221 100 75.3295
127.407 100 75.4148
128.3 100 76.2557
128.85 100 77.623
130.904 100 77.4586
131.031 100 78.6485
132.066 100 80.5806
133.323 100 80.3211
134.524 100 80.0289
135.598 100 79.8153
136.669 100 79.4063
137.737 100 79.166
138.809 100 78.992
139.955 100 78.8782
141.177 100 78.6801
142.413 100 78.5816
143.602 100 78.2822
144.615 100 78.9981
145.691 100 78.5587
78.896 100 79.6694
79.9238 100 80.1383
81.0543 100 79.4002
82.5793 100 79.6219
83.7864 100 79.6897
85.0003 100 79.8961
86.0517 100 80.1086
87.1194 100 80.3012
88.1618 100 80.85
89.3346 100 81.1132
90.4157 100 81.1665
91.4843 100 81.4244
93.5798 100 80.1942
94.3327 100 79.3256
94.5795 100 78.1048
96.4461 100 78.7611
96.9629 100 77.0875
97.7719 100 76.2786
98.8879 100 76.461
99.9965 100 75.8914
101.898 100 74.1429
103.045 100 73.9219
104.702 100 73.5783
105.733 100 72.8119
107.01 100 72.3429
108.152 100 72.8912
109.147 100 73.0299
110.352 100 73.1785
110.353 100 71.1224
111.72 100 69.8844
112.773 100 69.8844
114.139 100 71.1224
114.141 100 73.1785
115.345 100 73.0299
116.341 100 72.8912
117.483 100 72.3429
118.76 100 72.8119
119.791 100 73.5783
121.448 100 73.9219
122.594 100 74.1429
124.496 100 75.8914
125.605 100 76.461
126.72 100 76.2786
127.529 100 77.0875
128.046 100 78.7611
129.913 100 78.1048
130.16 100 79.3256
130.913 100 80.1942
133.008 100 81.4244
134.077 100 81.1665
135.158 100 81.1132
136.331 100 80.85
137.373 100 80.3012
138.441 100 80.1086
139.492 100 79.8961
140.706 100 79.6897
141.913 100 79.6219
143.438 100 79.4002
144.569 100 80.1383
145.596 100 79.6694
78.9975 100 80.8477
80.1419 100 81.2355
80.9502 100 80.5718
81.9874 100 80.6432
83.1518 100 80.9397
84.2953 100 80.782
85.3375 100 80.9497
86.4012 100 81.22
87.3746 100 81.7992
88.4288 100 81.9368
89.5657 100 82.1785
90.81 100 82.5799
92.3514 100 82.0389
93.2963 100 81.4049
94.805 100 80.3616
95.3629 100 78.8927
97.1115 100 79.4602
97.5337 100 78.1957
98.1972 100 77.3634
99.6768 100 77.0692
101.054 100 75.5214
102.674 100 74.9424
103.694 100 74.9891
104.857 100 74.6951
105.933 100 74.0232
107.29 100 73.6674
108.49 100 73.9627
109.658 100 73.9871
111.667 100 73.1681
111.061 100 72.2593
113.431 100 72.2593
112.826 100 73.1681
114.834 100 73.9871
116.003 100 73.9627
117.203 100 73.6674
118.56 100 74.0232
119.635 100 74.6951
120.799 100 74.9891
121.819 100 74.9424
123.438 100 75.5214
124.816 100 77.0692
126.295 100 77.3634
126.959 100 78.1957
127.381 100 79.4602
129.13 100 78.8927
129.687 100 80.3616
131.196 100 81.4049
132.141 100 82.0389
133.682 100 82.5799
134.927 100 82.1785
136.064 100 81.9368
137.118 100 81.7992
138.091 100 81.22
139.155 100 80.9497
140.197 100 80.782
141.341 100 80.9397
142.505 100 80.6432
143.542 100 80.5718
144.351 100 81.2355
145.495 100 80.8477
79.1391 100 81.941
80.2603 100 82.4561
81.1223 100 81.7832
82.3146 100 81.9763
83.4563 100 81.9497
84.6737 100 81.8994
85.7446 100 82.0348
86.7234 100 82.8134
87.861 100 82.9452
88.9365 100 83.0745
90.0183 100 83.2967
91.786 100 82.9177
93.3295 100 82.8081
94.3728 100 82.4411
95.1355 100 81.4407
95.8224 100 79.7825
98.0381 100 80.1871
98.4986 100 79.1365
99.265 100 78.2241
100.724 100 76.6635
102.023 100 75.8767
103.137 100 75.9578
104.511 100 75.7244
105.998 100 75.2435
107.141 100 74.9168
108.497 100 75.0661
109.744 100 75.2303
110.792 100 74.4885
110.594 100 75.9141
111.75 100 75.3764
112.742 100 75.3764
113.898 100 75.9141
113.701 100 74.4885
114.749 100 75.2303
115.996 100 75.0661
117.351 100 74.9168
118.495 100 75.2435
119.982 100 75.7244
121.356 100 75.9578
122.47 100 75.8767
123.769 100 76.6635
125.227 100 78.2241
125.994 100 79.1365
126.454 100 80.1871
128.67 100 79.7825
129.357 100 81.4407
130.12 100 82.4411
131.163 100 82.8081
132.706 100 82.9177
134.474 100 83.2967
135.556 100 83.0745
136.631 100 82.9452
137.769 100 82.8134
138.748 100 82.0348
139.819 100 81.8994
141.036 100 81.9497
142.178 100 81.9763
143.37 100 81.7832
144.232 100 82.4561
145.353 100 81.941
79.2342 100 83.0325
80.302 100 83.5042
81.29 100 82.889
82.1011 100 83.7542
82.8075 100 82.9758
83.8563 100 83.0551
84.9938 100 82.9799
85.7767 100 83.7154
86.7967 100 83.8819
87.9085 100 84.0932
89.0368 100 84.1286
90.1928 100 84.3375
91.2122 100 83.8263
92.4576 100 83.8589
93.7232 100 83.8322
94.7919 100 83.4183
96.6909 100 80.4603
99.1733 100 80.1653
99.879 100 79.1492
100.408 100 77.9246
101.461 100 77.5891
102.432 100 76.9503
103.936 100 76.5934
105.507 100 76.2242
106.665 100 76.1056
107.695 100 75.8192
108.07 100 77.0005
109.6 100 76.3835
110.582 100 77.1493
111.67 100 76.4197
112.823 100 76.4198
113.911 100 77.1493
114.893 100 76.3835
116.422 100 77.0005
116.798 100 75.8192
117.827 100 76.1056
118.985 100 76.2242
120.556 100 76.5934
122.061 100 76.9503
123.032 100 77.5891
124.084 100 77.9246
124.613 100 79.1492
125.319 100 80.1653
127.802 100 80.4603
129.701 100 83.4183
130.769 100 83.8322
132.035 100 83.8589
133.28 100 83.8263
134.3 100 84.3375
135.456 100 84.1286
136.584 100 84.0932
137.696 100 83.8819
138.716 100 83.7154
139.499 100 82.9799
140.636 100 83.0551
141.685 100 82.9758
142.391 100 83.7542
143.202 100 82.889
144.19 100 83.5042
145.258 100 83.0325
78.9435 100 84.4709
80.2472 100 84.8981
81.113 100 84.1888
82.4757 100 84.8519
83.3367 100 84.1554
84.468 100 84.0044
85.3538 100 84.6568
86.3509 100 84.9232
87.3789 100 85.104
88.4913 100 85.0533
89.5541 100 85.2584
90.8704 100 85.2613
92.0394 100 84.8772
93.0708 100 84.8388
94.5413 100 84.6925
95.7366 100 82.9581
96.445 100 81.5674
97.4525 100 81.1359
100.199 100 80.448
100.992 100 79.268
102.496 100 78.7058
[...]
POINT_DATA 1600
SCALARS mass double
LOOKUP_TABLE default
1
1
1
1
1
1
1
1
1
1
1
1
1
1
1
1
1
1
1
1
1
1
1
1
1
1
1
1
1
1
1
1
1
1
1
1
1
1
1
1
1
1
1
1
1
1
1
1
1
1
1
1
1
1
1
1
1
1
1
1
1
1
1
1
1
1
1
1
1
1
1
1
1
1
1
1
1
1
1
1
1
1
1
1
1
1
1
1
1
1
1
1
1
1
1
1
1
1
1
1
1
1
1
1
1
1
1
1
1
1
1
1
1
1
1
1
1
1
1
1
1
1
1
1
1
1
1
1
1
1
1
1
1
1
1
1
1
1
1
1
1
1
1
1
1
1
1
1
1
1
1
1
1
1
1
1
1
1
1
1
1
1
1
1
1
1
1
1
1
1
1
1
1
1
1
1
1
1
1
1
1
1
1
1
1
1
1
1
1
1
1
1
1
1
1
1
1
1
1
1
1
1
1
1
1
1
1
1
1
1
1
1
1
1
1
1
1
1
1
1
1
1
1
1
1
1
1
1
1
1
1
1
1
1
1
1
1
1
1
1
1
1
1
1
1
1
1
1
1
1
1
1
1
1
1
1
1
1
1
1
1
1
1
1
1
1
1
1
1
1
1
1
1
1
1
1
1
1
1
1
1
1
1
1
1
1
1
1
1
1
1
1
1
1
1
1
1
1
1
1
1
1
1
1
1
1
1
1
1
1
1
1
1
1
1
1
1
1
1
1
1
1
1
1
1
1
1
1
1
1
1
1
1
1
1
1
1
1
1
1
1
1
1
1
1
1
1
1
1
1
1
1
1
1
1
1
1
1
1
1
1
1
1
1
1
1
1
1
1
1
1
1
1
1
1
1
1
1
1
1
1
1
1
1
1
1
1
1
1
1
1
1
1
1
1
1
1
1
1
1
1
1
1
1
1
1
1
1
1
1
1
1
1
1
1
1
1
1
1
1
1
1
1
1
1
1
1
1
1
1
1
1
1
1
1
1
1
1
1
1
1
1
1
1
1
1
1
1
1
1
1
1
1
1
1
1
1
1
1
1
1
1
1
1
1
1
1
1
1
1
1
1
1
1
1
1
1
1
1
1
1
1
1
1
1
1
1
1
1
1
1
1
1
1
1
1
1
1
1
1
1
1
1
1
1
1
1
1
1
1
1
1
1
1
1
1
1
1
1
1
1
1
1
1
1
1
1
1
1
1
1
1
1
1
1
1
1
1
1
1
1
1
1
1
1
1
1
1
1
1
1
1
1
1
1
1
1
1
1
1
1
1
1
1
1
1
1
1
1
1
1
1
1
1
1
1
1
1
1
1
1
1
1
1
1
1
1
1
1
1
1
1
1
1
1
1
1
1
1
1
1
1
1
1
1
1
1
1
1
1
1
1
1
1
1
1
1
1
1
1
1
1
1
1
1
1
1
1
1
1
1
1
1
1
1
1
1
1
1
1
1
1
1
1
1
1
1
1
1
1
1
1
1
1
1
1
1
1
1
1
1
1
1
1
1
1
1
1
1
1
1
1
1
1
1
1
1
1
1
1
1
1
1
1
1
1
1
1
1
1
1
1
1
1
1
1
1
1
1
1
1
1
1
1
1
1
1
1
1
1
1
1
1
1
1
1
1
1
1
1
1
1
1
1
1
1
1
1
1
1
1
1
1
1
1
1
1
1
1
1
1
1
1
1
1
1
1
1
1
1
1
1
1
1
1
1
1
1
1
1
1
1
1
1
1
1
1
1
1
1
1
1
1
1
1
1
1
1
1
1
1
1
1
1
1
1
1
1
1
1
1
1
1
1
1
1
1
1
1
1
1
1
1
1
1
1
1
1
1
1
1
1
1
1
1
1
1
1
1
1
1
1
1
1
1
1
1
1
1
1
1
1
1
1
1
1
1
1
1
1
1
1
1
1
1
1
1
1
1
1
1
1
1
1
1
1
1
1
1
1
1
1
1
1
1
1
1
1
1
1
1
1
1
1
1
1
1
1
1
1
1
1
1
1
1
1
1
1
1
1
1
1
1
1
1
1
1
1
1
1
1
1
1
1
1
1
1
1
1
1
1
1
1
1
1
1
1
1
1
1
1
1
1
1
1
1
1
1
1
1
1
1
1
1
1
1
1
1
1
1
1
1
1
1
1
1
1
1
1
1
1
1
1
1
1
1
1
1
1
1
1
1
1
1
1
1
1
1
1
1
1
1
1
1
1
1
1
1
1
1
1
1
1
1
1
1
1
1
1
1
1
1
1
1
1
1
1
1
1
1
1
1
1
1
1
1
1
1
1
1
1
1
1
1
1
1
1
1
1
1
1
1
1
1
1
1
1
1
1
1
1
1
1
1
1
1
1
1
1
1
1
1
1
1
1
1
1
1
1
1
1
1
1
1
1
1
1
1
1
1
1
1
1
1
1
1
1
1
1
1
1
1
1
1
1
1
1
1
1
1
1
1
1
1
1
1
1
1
1
1
1
1
1
1
1
1
1
1
1
1
1
1
1
1
1
1
1
1
1
1
1
1
1
1
1
1
1
1
1
1
1
1
1
1
1
1
1
1
1
1
1
1
1
1
1
1
1
1
1
1
1
1
1
1
1
1
1
1
1
1
1
1
1
1
1
1
1
1
1
1
1
1
1
1
1
1
1
1
1
1
1
1
1
1
1
1
1
1
1
1
1
1
1
1
1
1
1
1
1
1
1
1
1
1
1
1
1
1
1
1
1
1
1
1
1
1
1
1
1
1
1
1
1
1
1
1
1
1
1
1
1
1
1
1
1
1
1
1
1
1
1
1
1
1
1
1
1
1
1
1
1
1
1
1
1
1
1
1
1
1
1
1
1
1
1
1
1
1
1
1
1
1
1
1
1
1
1
1
1
1
1
1
1
1
1
1
1
1
1
1
1
1
1
1
1
1
1
1
1
1
1
1
1
1
1
1
1
1
1
1
1
1
1
1
1
1
1
1
1
1
1
1
1
1
1
1
1
1
1
1
1
1
1
1
1
1
1
1
1
1
1
1
1
1
1
1
1
1
1
1
1
1
1
1
1
1
1
1
1
1
1
1
1
1
1
1
1
1
1
1
1
1
1
1
1
1
1
1
1
1
1
1
1
1
1
1
1
1
1
1
1
1
1
1
1
1
1
1
1
1
1
1
1
1
1
1
1
1
1
1
1
1
1
1
1
1
1
1
1
1
1
1
1
1
1
1
1
1
1
1
1
1
1
1
1
1
1
1
1
1
1
1
1
1
1
1
1
1
1
1
1
1
1
1
1
1
1
1
1
1
1
1
1
1
1
1
1
1
1
1
1
1
1
1
1
1
1
1
1
1
1
1
1
1
1
1
1
1
1
1
1
1
1
1
1
1
1
1
1
1
1
1
1
1
1
1
1
1
1
1
1
1
1
1
1
1
1
1
1
1
1
1
1
1
1
1
1
1
1
1
1
1
1
1
1
1
1
1
1
1
1
1
1
1
1
1
1
1
1
1
1
1
1
1
1
1
1
1
1
1
1
1
1
1
1
1
1
1
1
1
1
1
1
1
1
1
1
1
1
1
1
1
1
1
1
1
1
1
1
1
1
1
1
1
1
1
1
1
1
1
1
1
1
1
1
1
1
1
1
1
VECTORS force double
11.2745 0 3.0282
20.4109 0 -28.7145
6.28629 0 -8.50292
6.76856 0 5.21863
-19.741 0 -1.16851
5.21188 0 17.3039
-16.1039 0 5.7789
-34.2128 0 -1.61955
33.1414 0 23.4719
-8.56293 0 13.9289
4.92954 0 12.2531
15.9191 0 -24.7669
7.33795 0 14.0168
-26.1134 0 -29.1806
8.26367 0 12.7029
5.98352 0 1.51426
20.675 0 -39.0014
-5.04678 0 -5.37299
-5.01844 0 19.0726
-5.00538 0 -33.5815
13.256 0 19.8446
2.6631 0 -4.22726
15.3422 0 -4.47452
-16.2699 0 8.27395
-15.9368 0 -11.5594
-24.9763 0 -47.3353
3.1255 0 22.8477
8.90338 0 8.04014
-15.4856 0 39.6851
28.4706 0 -14.4746
-28.4706 0 -14.4746
15.4856 0 39.6851
-8.90337 0 8.04014
-3.12549 0 22.8477
24.9763 0 -47.3353
15.9368 0 -11.5594
16.2699 0 8.27395
-15.3422 0 -4.47452
-2.6631 0 -4.22726
-13.256 0 19.8446
5.00533 0 -33.5815
5.01844 0 19.0726
5.0468 0 -5.37302
-20.675 0 -39.0014
-5.98353 0 1.51426
-8.26367 0 12.7029
26.1134 0 -29.1806
-7.33795 0 14.0168
-15.919 0 -24.7669
-4.92955 0 12.2531
8.56294 0 13.929
-33.1414 0 23.4719
34.2128 0 -1.61955
16.1039 0 5.7789
-5.21187 0 17.3039
19.741 0 -1.16851
-6.76856 0 5.21864
-6.28629 0 -8.50292
-20.4109 0 -28.7145
-11.2745 0 3.0282
-12.4206 0 36.299
-1.55484 0 21.0172
30.2864 0 7.10079
-6.61623 0 -17.0082
4.75823 0 13.2576
-19.5466 0 -1.23478
18.4328 0 15.4885
2.71918 0 14.1052
-37.0539 0 -2.62199
26.9129 0 15.228
-3.34771 0 10.2651
6.97172 0 15.6711
-9.41578 0 9.0609
33.7158 0 32.0712
-38.1227 0 -3.92873
-5.78062 0 2.70863
3.17173 0 53.4608
-0.059458 0 9.29039
8.68566 0 9.54946
5.97448 0 18.9264
-0.4899 0 -0.959221
1.02724 0 1.42146
2.7058 0 10.661
-1.42558 0 14.5448
-10.5202 0 -9.03807
45.9735 0 52.5913
-0.720963 0 -28.9752
-7.1012 0 7.04396
16.7442 0 -20.1519
2.6294 0 -62.4272
-2.62947 0 -62.4277
-16.7443 0 -20.1519
7.10125 0 7.04402
0.720952 0 -28.9752
-45.9735 0 52.5913
10.5202 0 -9.03807
1.42558 0 14.5449
-2.70557 0 10.6611
-1.02724 0 1.42146
0.489904 0 -0.95922
-5.97449 0 18.9264
-8.6856 0 9.54947
0.0594606 0 9.29039
-3.17176 0 53.4608
5.78061 0 2.70861
38.1227 0 -3.9287
-33.7158 0 32.0712
9.41579 0 9.06091
-6.97174 0 15.671
3.34773 0 10.2651
-26.9129 0 15.228
37.0539 0 -2.62199
-2.71918 0 14.1052
-18.4328 0 15.4885
19.5466 0 -1.23478
-4.75823 0 13.2576
6.61623 0 -17.0082
-30.2864 0 7.10079
1.55484 0 21.0172
12.4206 0 36.299
-33.0484 0 -3.37698
31.1059 0 -13.9536
-25.4376 0 6.27433
7.38095 0 -23.9458
2.27979 0 23.5471
20.0726 0 12.3632
-10.5706 0 -41.5883
-15.1368 0 -6.94912
75.6618 0 -62.3957
-3.26083 0 -12.6895
-3.13016 0 5.56143
30.6596 0 -79.1996
-20.6076 0 -10.686
5.40891 0 -7.01288
3.21994 0 -1.19154
-6.49365 0 16.5277
11.7265 0 -18.1517
-1.55169 0 -2.49198
-6.28903 0 9.00849
15.1123 0 -39.6178
0.863942 0 -11.8238
4.9855 0 1.13201
3.93815 0 -3.89502
-3.12172 0 9.99421
-34.8166 0 -24.5778
78.6016 0 30.3341
-42.4481 0 41.0377
27.3851 0 42.0152
8.58181 0 -16.4406
-10.2919 0 66.9549
10.2919 0 66.9554
-8.58181 0 -16.4406
-27.3911 0 42.021
42.4507 0 41.0394
-78.6004 0 30.3341
34.8225 0 -24.5837
3.12246 0 9.9933
-3.93779 0 -3.89461
-4.9857 0 1.13194
-0.863927 0 -11.8235
-15.1123 0 -39.6177
6.28901 0 9.00848
1.55167 0 -2.49203
-11.7265 0 -18.1517
6.49377 0 16.5277
-3.22001 0 -1.19147
-5.4089 0 -7.01288
20.6076 0 -10.686
-30.6596 0 -79.1996
3.13015 0 5.56143
3.26084 0 -12.6895
-75.6618 0 -62.3957
15.1368 0 -6.94912
10.5706 0 -41.5884
-20.0726 0 12.3632
-2.27979 0 23.5471
-7.38095 0 -23.9459
25.4376 0 6.27433
-31.1059 0 -13.9536
33.0484 0 -3.37698
14.0522 0 -4.81981
7.38614 0 16.4781
-6.73469 0 1.38003
5.02526 0 9.11026
-5.40429 0 -2.88011
-12.4374 0 -9.39074
-4.37479 0 24.9232
-45.1848 0 62.6491
11.0686 0 11.1343
-15.1609 0 -4.51081
-23.5328 0 57.7242
19.9608 0 30.2471
-0.614529 0 19.3376
-3.82624 0 -20.5612
-0.194021 0 10.1106
-5.09232 0 6.40517
38.1593 0 9.13814
-6.38293 0 -5.1406
13.5261 0 -23.7113
-0.0412319 0 15.2799
-7.70861 0 48.5677
2.5951 0 -68.4047
3.50424 0 -1.71011
5.71099 0 6.23162
-9.63593 0 6.90104
-60.1741 0 -25.6747
-18.7236 0 -28.8312
-17.5788 0 -17.9292
45.7596 0 -19.6574
-3.57011 0 -19.763
3.57013 0 -19.7631
-45.7622 0 -19.6592
17.5798 0 -17.9303
18.7227 0 -28.8303
60.1719 0 -25.674
9.63602 0 6.90093
-5.7108 0 6.23127
-3.50424 0 -1.71013
-2.5949 0 -68.4047
7.70867 0 48.5675
0.0411437 0 15.28
-13.526 0 -23.7113
6.38301 0 -5.14079
-38.1594 0 9.13819
5.09245 0 6.40517
0.194027 0 10.1106
3.82621 0 -20.5612
0.614537 0 19.3376
-19.9607 0 30.2472
23.5328 0 57.7242
15.1609 0 -4.51082
-11.0686 0 11.1343
45.1848 0 62.6491
4.37473 0 24.9233
12.4374 0 -9.39073
5.40429 0 -2.88011
-5.02526 0 9.11026
6.73469 0 1.38003
-7.38614 0 16.4781
-14.0522 0 -4.81981
13.5664 0 6.84146
-2.63236 0 -7.5024
-5.6483 0 5.42337
8.28407 0 0.0578685
-0.621338 0 24.5487
-33.8091 0 -11.205
16.0252 0 -11.9671
18.2564 0 4.38054
-0.400867 0 -8.58953
-35.2858 0 -25.9041
1.15266 0 -0.82905
-13.0934 0 -16.1242
-0.310633 0 7.10706
7.75256 0 1.31383
-14.9904 0 -0.86269
-143.632 0 -168.109
11.2855 0 9.09556
-8.17169 0 37.4145
-99.3887 0 -91.8497
-35.4881 0 -5.72439
-20.4924 0 85.8088
-2.90168 0 -9.53374
15.2906 0 -2.28859
-2.86459 0 0.102068
-0.296518 0 1.35137
-118.924 0 -20.3812
121.761 0 23.7265
32.4705 0 2.04466
-3.82319 0 -2.29378
-46.8538 0 0.957895
46.8539 0 0.957919
3.82333 0 -2.293
-32.4714 0 2.04404
-121.761 0 23.7268
118.924 0 -20.3814
0.296217 0 1.35132
2.86478 0 0.102206
-15.2904 0 -2.28889
2.90145 0 -9.53398
20.4923 0 85.8083
35.4887 0 -5.7249
99.3895 0 -91.8503
8.17128 0 37.4147
-11.2854 0 9.09565
143.632 0 -168.109
14.9903 0 -0.862799
-7.75257 0 1.31378
0.310645 0 7.10709
13.0934 0 -16.1242
-1.15264 0 -0.829069
35.2858 0 -25.9041
0.40087 0 -8.58954
-18.2564 0 4.38055
-16.0252 0 -11.9672
33.8091 0 -11.205
0.621343 0 24.5487
-8.28407 0 0.0578692
5.6483 0 5.42337
2.63236 0 -7.5024
-13.5664 0 6.84146
17.886 0 -18.2238
-53.5085 0 45.3498
-12.8416 0 -29.998
64.1646 0 9.07916
-18.6006 0 -44.0901
-45.4114 0 -2.91053
23.4567 0 25.562
42.8809 0 -44.1784
-29.1789 0 1.59518
47.4571 0 16.0259
21.1238 0 8.10721
-41.5335 0 -45.7618
60.0324 0 -20.9899
-3.47347 0 -5.76106
-3.37679 0 -11.1672
-60.304 0 -107.117
169.936 0 149.134
-28.894 0 33.4699
18.4839 0 -30.1125
97.089 0 80.1285
-63.8341 0 -25.6564
-87.0933 0 14.8596
79.0802 0 -13.9782
14.456 0 -10.6635
-8.92835 0 4.04455
6.04283 0 2.75237
-0.946526 0 -10.8555
-11.6335 0 51.6588
0.664959 0 13.0631
-10.6013 0 -10.6728
10.6005 0 -10.6726
-0.66472 0 13.063
11.6355 0 51.6592
0.945262 0 -10.8552
-6.0428 0 2.75248
8.92829 0 4.04472
-14.4558 0 -10.6625
-79.0834 0 -13.9757
87.0955 0 14.8602
63.834 0 -25.6563
-97.0894 0 80.129
-18.4837 0 -30.1124
28.8939 0 33.4698
-169.937 0 149.135
60.3039 0 -107.117
3.37678 0 -11.1672
3.47347 0 -5.76104
-60.0324 0 -20.9899
41.5335 0 -45.7619
-21.1238 0 8.1072
-47.457 0 16.0259
29.1789 0 1.59518
-42.8809 0 -44.1784
-23.4567 0 25.562
45.4114 0 -2.91053
18.6006 0 -44.0901
-64.1646 0 9.07916
12.8416 0 -29.998
53.5085 0 45.3498
-17.886 0 -18.2238
23.1035 0 -5.4215
-30.9876 0 -49.3764
21.3406 0 -22.4928
-10.2505 0 -13.2315
19.7318 0 48.5522
-33.2455 0 -10.8409
-8.26081 0 48.2773
-8.29686 0 -34.4334
-25.0814 0 -7.18833
-7.37115 0 -29.7923
-22.1165 0 -16.3349
51.0622 0 43.1174
-25.0895 0 -12.445
0.628318 0 -35.7807
4.28309 0 9.98683
51.5445 0 92.7239
-32.3035 0 -48.3806
5.11031 0 1.52016
-4.24412 0 -15.1399
33.091 0 29.2662
58.1376 0 25.3977
-58.2928 0 -36.7531
22.686 0 -23.611
-7.59824 0 -36.8433
-23.8168 0 -30.8779
11.8518 0 -0.115527
-14.1141 0 -20.737
-13.9848 0 4.69879
37.6325 0 9.25923
-150.208 0 -43.8874
150.207 0 -43.8864
-37.6338 0 9.26023
13.9847 0 4.69901
14.1151 0 -20.7375
-11.8512 0 -0.115882
23.8082 0 -30.8645
7.59604 0 -36.8462
-22.6844 0 -23.6149
58.2903 0 -36.7533
-58.1376 0 25.3976
-33.0912 0 29.2662
4.24405 0 -15.1399
-5.11032 0 1.52017
32.3031 0 -48.3799
-51.5444 0 92.7238
-4.28307 0 9.98685
-0.628139 0 -35.781
25.0894 0 -12.4449
-51.0623 0 43.1173
22.1165 0 -16.3349
7.37113 0 -29.7923
25.0814 0 -7.18834
8.29686 0 -34.4334
8.26084 0 48.2773
33.2455 0 -10.8409
-19.7318 0 48.5522
10.2506 0 -13.2315
-21.3406 0 -22.4928
30.9876 0 -49.3764
-23.1035 0 -5.4215
17.708 0 14.2937
-24.3242 0 24.1282
11.5497 0 18.0782
-5.34752 0 25.1821
-5.52102 0 -30.0238
40.7566 0 -0.156616
-14.9112 0 -17.7604
-16.2387 0 -50.6537
70.335 0 42.0917
-0.401015 0 -6.4738
33.3372 0 17.9109
3.19354 0 35.6874
-12.1594 0 19.5707
7.94643 0 -15.4105
0.408952 0 20.2098
-181.14 0 -44.9182
-56.4917 0 -37.4979
-26.2725 0 -33.8098
-7.63734 0 13.3753
-14.7836 0 7.27775
10.6783 0 -10.2946
-14.4659 0 -30.8811
23.4478 0 74.1346
3.82949 0 17.9232
-21.3146 0 11.1741
39.9758 0 37.3797
1.80494 0 -6.53906
-0.913244 0 13.1791
-51.8245 0 -54.7012
-13.0188 0 55.092
13.0202 0 55.0961
51.8267 0 -54.699
0.913124 0 13.1789
-1.80481 0 -6.53993
-39.9692 0 37.3663
21.3167 0 11.1729
-3.82854 0 17.9268
-23.4454 0 74.1342
14.4658 0 -30.8813
-10.6793 0 -10.2945
14.7845 0 7.27808
7.63735 0 13.3755
26.2717 0 -33.8093
56.4917 0 -37.4978
181.139 0 -44.9177
-0.408945 0 20.2097
-7.94642 0 -15.4105
12.1594 0 19.5707
-3.19353 0 35.6874
-33.3372 0 17.9109
0.401011 0 -6.47378
-70.335 0 42.0917
16.2387 0 -50.6537
14.9112 0 -17.7604
-40.7566 0 -0.156613
5.52102 0 -30.0238
5.34753 0 25.1821
-11.5497 0 18.0782
24.3242 0 24.1282
-17.708 0 14.2937
18.1119 0 5.88078
-12.8761 0 -18.8873
14.5234 0 28.6684
-54.0481 0 -20.9953
2.3853 0 -12.4075
-1.34122 0 -0.289778
-74.0225 0 53.0765
-0.486753 0 -9.30934
32.0832 0 -22.8071
-17.5236 0 22.5692
28.0583 0 -18.2423
-1.44057 0 5.6744
-80.8482 0 17.0958
63.3405 0 -33.2152
1.6545 0 -52.2249
52.2576 0 -88.3927
-18.4828 0 1.62161
58.2008 0 32.3011
39.1981 0 3.93845
-27.6841 0 -48.0453
-1.79142 0 18.8999
14.1557 0 1.97052
13.3278 0 36.4547
-4.11334 0 -0.597458
-8.4344 0 10.0999
25.5087 0 -9.45572
-1.27513 0 -17.2916
-7.0539 0 10.8764
-5.3729 0 1.59138
60.0597 0 28.8439
-60.0529 0 28.8478
5.36129 0 1.58269
7.05584 0 10.8767
1.28473 0 -17.3004
-25.5113 0 -9.45805
8.43474 0 10.0998
4.11345 0 -0.597262
-13.3283 0 36.4555
-14.1553 0 1.97033
1.79197 0 18.9
27.6844 0 -48.0453
-39.1972 0 3.93762
-58.2007 0 32.3008
18.4827 0 1.62167
-52.2577 0 -88.3926
-1.65454 0 -52.2247
-63.3405 0 -33.2153
80.8483 0 17.0958
1.44056 0 5.67441
-28.0583 0 -18.2422
17.5236 0 22.5692
-32.0831 0 -22.8071
0.486743 0 -9.30936
74.0225 0 53.0765
1.34122 0 -0.289788
-2.38529 0 -12.4075
54.0481 0 -20.9953
-14.5234 0 28.6684
12.8761 0 -18.8873
-18.1119 0 5.88078
-21.2564 0 -13.8097
-4.28364 0 18.066
31.4005 0 -34.8176
-5.81012 0 2.61951
-19.728 0 20.6703
60.1964 0 -27.6584
-11.6047 0 -10.697
14.0262 0 30.5361
-1.15127 0 -21.6573
-23.0868 0 30.2301
-117.98 0 9.2138
129.903 0 6.0381
-24.3518 0 -17.8095
12.9687 0 3.13009
0.624506 0 27.119
136.508 0 184.884
-9.61085 0 4.99185
-4.62683 0 12.7281
5.9324 0 44.6862
-13.254 0 21.1877
-157.128 0 87.1104
106.424 0 -11.8817
14.8135 0 -12.4968
-2.62011 0 3.1499
21.8962 0 -15.5447
-28.1193 0 22.3808
-2.46765 0 -1.2794
4.48058 0 9.91288
67.6871 0 -18.2575
-5.26671 0 -18.557
5.26567 0 -18.5624
-67.7047 0 -18.2613
-4.4866 0 9.9224
2.46954 0 -1.27999
28.1199 0 22.3798
-21.8978 0 -15.5437
2.61976 0 3.14932
-14.8138 0 -12.497
-106.431 0 -11.8841
157.132 0 87.1115
13.2539 0 21.1881
-5.93175 0 44.6854
4.62697 0 12.7281
9.61084 0 4.99191
-136.508 0 184.884
-0.624431 0 27.119
-12.9687 0 3.13008
24.3518 0 -17.8095
-129.903 0 6.03808
117.981 0 9.21377
23.0868 0 30.2301
1.15128 0 -21.6573
-14.0262 0 30.5361
11.6047 0 -10.697
-60.1964 0 -27.6583
19.7281 0 20.6703
5.81014 0 2.61951
-31.4005 0 -34.8176
4.28362 0 18.066
21.2564 0 -13.8097
-1.88342 0 6.8631
0.769108 0 25.182
-5.56045 0 -2.33264
-75.9572 0 -59.6186
26.8254 0 35.3726
-8.29061 0 16.2548
-23.3509 0 -27.6794
0.0889247 0 1.39816
8.45202 0 -3.56967
6.21835 0 4.96644
4.91576 0 -10.5677
6.90754 0 16.3018
-50.1861 0 -50.9124
40.1522 0 -77.9559
-28.1528 0 -14.8326
10.936 0 30.124
-33.9243 0 -50.3407
1.38125 0 -12.1275
-1.89227 0 -4.32568
29.0902 0 18.0683
18.5865 0 -5.54502
0.418217 0 -2.42798
-17.7138 0 7.17495
76.0138 0 1.08162
-20.6006 0 8.176
-50.0621 0 -39.1052
37.0628 0 10.2349
-78.0032 0 14.6047
14.9338 0 -6.16215
-12.7929 0 18.7236
12.7946 0 18.7285
-14.9293 0 -6.17108
78.0122 0 14.62
-37.0546 0 10.2373
50.0551 0 -39.1089
20.6016 0 8.17785
-76.011 0 1.08322
17.7156 0 7.17527
-0.418268 0 -2.42802
-18.5864 0 -5.54489
-29.0904 0 18.0684
1.89216 0 -4.32572
-1.38128 0 -12.1274
33.9243 0 -50.3408
-10.936 0 30.1237
28.1525 0 -14.8322
-40.1521 0 -77.9558
50.186 0 -50.9125
-6.90754 0 16.3018
-4.91575 0 -10.5678
-6.21836 0 4.96644
-8.45205 0 -3.56966
-0.0889282 0 1.39816
23.3507 0 -27.6794
8.29061 0 16.2548
-26.8254 0 35.3726
75.9572 0 -59.6186
5.56044 0 -2.33264
-0.769087 0 25.182
1.88342 0 6.8631
49.8472 0 -44.5156
6.27833 0 14.2379
-35.9129 0 -18.2867
12.7636 0 -32.5203
86.1987 0 47.0781
-10.1386 0 -9.4611
8.3395 0 5.44265
29.8492 0 32.9583
9.44528 0 10.6397
-57.9882 0 -2.13673
25.1985 0 0.643665
23.4188 0 -5.68276
-0.0583962 0 7.0415
14.3927 0 122.28
-37.5351 0 -9.24309
19.2465 0 70.8058
-6.99204 0 -71.3007
34.6832 0 46.7247
7.98568 0 2.9972
4.45909 0 -1.00029
-67.1662 0 -74.149
23.7642 0 0.344536
-3.82326 0 -18.5247
8.50888 0 -13.2754
6.47431 0 4.81659
12.5004 0 -3.26817
11.1115 0 -7.21047
-15.5882 0 7.06522
11.0681 0 -10.2488
3.08456 0 -15.7021
-3.085 0 -15.699
-11.0678 0 -10.2496
15.5879 0 7.06519
-11.1117 0 -7.20296
-12.4996 0 -3.26884
-6.47679 0 4.81696
-8.51008 0 -13.2779
3.82329 0 -18.5256
-23.7628 0 0.344837
67.162 0 -74.1449
-4.45921 0 -1.00046
-7.98567 0 2.99713
-34.6831 0 46.7246
6.99246 0 -71.3003
-19.2467 0 70.8051
37.5352 0 -9.24303
-14.3928 0 122.28
0.0584902 0 7.04163
-23.4189 0 -5.6827
-25.1984 0 0.643673
57.9882 0 -2.13675
-9.4454 0 10.6397
-29.8491 0 32.9582
-8.3395 0 5.44265
10.1387 0 -9.46109
-86.1987 0 47.0781
-12.7636 0 -32.5203
35.913 0 -18.2867
-6.27832 0 14.2379
-49.8472 0 -44.5156
-20.4596 0 50.3801
8.37807 0 2.97721
-41.1059 0 4.63101
39.3838 0 18.3578
-1.17656 0 27.4245
8.1842 0 -2.23807
-12.939 0 -53.9658
-62.1398 0 -69.1967
27.2582 0 -81.6299
-22.3288 0 -3.96044
-13.4624 0 -85.0197
-148.966 0 -155.073
15.8087 0 0.471433
13.2157 0 -32.5449
11.9982 0 0.874243
-21.2846 0 -2.61225
11.1296 0 4.86989
29.4054 0 29.2828
-0.695797 0 27.5048
1.3975 0 -0.146097
-31.9827 0 30.0389
54.5759 0 -64.7813
7.49483 0 4.78077
-23.4257 0 -7.79786
-47.789 0 -98.9376
30.9572 0 -12.3546
14.8325 0 -14.8327
-80.2851 0 -63.3595
-11.5937 0 13.9988
7.55318 0 8.70341
-7.55213 0 8.69946
11.5948 0 13.9999
80.2834 0 -63.3598
-14.8276 0 -14.8466
-30.9577 0 -12.3601
47.7823 0 -98.9273
23.4261 0 -7.79412
-7.49559 0 4.7802
-54.5727 0 -64.7908
31.9844 0 30.0403
-1.39784 0 -0.14584
0.69554 0 27.5048
-29.4056 0 29.2829
-11.1294 0 4.86988
21.2844 0 -2.61216
-11.9983 0 0.874261
-13.2157 0 -32.5449
-15.8087 0 0.471319
148.966 0 -155.073
13.4622 0 -85.0196
22.3289 0 -3.96045
-27.2582 0 -81.6297
62.1399 0 -69.1967
12.939 0 -53.9658
-8.18418 0 -2.23806
1.17654 0 27.4245
-39.3838 0 18.3578
41.1059 0 4.63101
-8.37808 0 2.97721
20.4596 0 50.3801
17.1018 0 1.05365
9.22722 0 -4.12262
1.00797 0 1.05377
-38.193 0 -74.1699
-10.5221 0 -52.6263
42.9483 0 4.55994
19.831 0 34.2764
-33.3499 0 134.712
15.4158 0 -75.9067
-43.4454 0 -4.47863
63.5961 0 59.1608
144.599 0 160.426
-20.7355 0 29.863
-219.989 0 0.930042
198.389 0 -45.5374
-32.0614 0 -15.3907
56.4196 0 25.1794
-113.316 0 104.558
22.2347 0 -80.9312
85.025 0 -77.5521
-15.6998 0 2.39439
-23.8741 0 -13.5415
24.254 0 103.222
-67.1809 0 29.5088
8.38286 0 -13.5966
9.59273 0 123.514
-32.3894 0 5.62282
-0.96573 0 71.0788
160.118 0 -54.2693
14.9146 0 -85.9734
-14.9128 0 -85.9743
-160.116 0 -54.2666
0.962742 0 71.0915
32.391 0 5.62503
-9.58852 0 123.507
-8.38556 0 -13.5923
67.1858 0 29.5128
-24.2549 0 103.227
23.8769 0 -13.5437
15.6984 0 2.39448
-85.0264 0 -77.5527
-22.2326 0 -80.93
113.315 0 104.557
-56.4195 0 25.1793
32.0614 0 -15.3908
-198.389 0 -45.5374
219.988 0 0.930006
20.7356 0 29.863
-144.599 0 160.426
-63.596 0 59.1607
43.4454 0 -4.47862
-15.4158 0 -75.9067
33.3499 0 134.712
-19.831 0 34.2765
-42.9482 0 4.55993
10.5221 0 -52.6262
38.193 0 -74.1699
-1.00797 0 1.05377
-9.22722 0 -4.12262
-17.1018 0 1.05365
4.22224 0 11.2569
22.445 0 7.65652
52.9213 0 -24.4114
-21.4417 0 36.5297
38.9157 0 67.477
-10.9586 0 5.77269
-23.8401 0 -2.18415
26.4253 0 -14.7377
-2.75748 0 109.678
-8.67534 0 -44.2015
-5.13456 0 -2.04492
-78.1548 0 6.89678
103.913 0 9.31066
-13.6616 0 7.52156
-16.8308 0 46.2403
49.8961 0 -21.5306
-0.387554 0 28.1162
4.62604 0 -2.933
1.69685 0 -8.85119
2.22546 0 41.921
-56.9737 0 -49.833
20.5834 0 9.95707
18.2087 0 -47.9809
44.4907 0 -22.4944
-128.371 0 18.5722
131.648 0 -57.0886
26.3761 0 8.96931
-40.0451 0 33.6071
-32.9805 0 93.2221
-3.68166 0 -4.38913
3.68171 0 -4.387
32.9762 0 93.2241
40.0439 0 33.5974
-26.3744 0 8.96842
-131.65 0 -57.0885
128.375 0 18.5689
-44.4923 0 -22.4996
-18.2066 0 -47.9822
-20.584 0 9.95771
56.9746 0 -49.8335
-2.22563 0 41.9207
-1.69715 0 -8.85132
-4.62634 0 -2.93326
0.38758 0 28.1163
-49.8962 0 -21.5306