# vtk DataFile Version 3.0
SiWiRVisFile
ASCII
DATASET UNSTRUCTURED_GRID
POINTS 1600 DOUBLE
77.3082 100 72.4328
75.5787 100 72.8231
76.5861 100 73.3367
78.3947 100 73.2687
79.5288 100 73.7595
80.5737 100 74.1308
81.9457 100 73.9286
83.0021 100 74.2381
84.047 100 74.3456
83.6675 100 73.3383
92.5605 100 68.1816
91.2154 100 68.0524
91.8767 100 69.1026
89.8395 100 68.0165
85.0038 100 67.4939
90.4118 100 59.0585
91.4412 100 58.7991
91.559 100 57.2045
87.9323 100 51.419
93.403 100 56.2755
106.363 100 35.3162
107.11 100 34.4567
106.155 100 33.3569
107.259 100 33.1508
104.987 100 33.5535
112.241 100 34.9456
111.319 100 27.0455
112.002 100 25.7824
110.678 100 28.6671
111.67 100 28.1763
112.797 100 28.1378
113.733 100 28.7262
112.38 100 27.187
113.568 100 27.4503
114.276 100 33.039
119.035 100 33.6684
116.942 100 32.719
117.83 100 33.4316
117.116 100 34.2974
117.817 100 35.4617
130.572 100 56.1721
136.56 100 51.419
131.662 100 57.3965
133.296 100 59.0069
134.974 100 58.4911
135.61 100 69.2206
134.631 100 67.2376
134.308 100 69.9563
133.569 100 67.7036
133.517 100 68.7987
140.734 100 73.0629
140.321 100 74.3909
141.314 100 74.0952
142.425 100 73.7394
144.247 100 74.2177
145.423 100 73.4198
146.42 100 72.9658
148.248 100 73.6319
148.944 100 72.7339
147.711 100 72.5884
74.4257 100 73.5675
75.53 100 74.0714
77.5094 100 73.9237
78.5033 100 74.4358
79.5857 100 74.875
81.3637 100 74.8541
82.3381 100 75.1809
83.4038 100 75.2979
84.641 100 75.3669
85.9098 100 75.4472
87.0579 100 75.5205
92.0046 100 67.1334
90.6399 100 68.9511
91.094 100 65.0766
91.0339 100 59.9419
90.9406 100 66.756
92.179 100 58.0595
92.7358 100 57.0896
93.9444 100 57.5452
96.8707 100 54.9559
105.808 100 34.4242
96.7055 100 41.5074
106.511 100 44.3487
109.819 100 31.8026
108.221 100 32.4996
111.453 100 34.0661
110.702 100 33.2288
109.327 100 32.8369
106.982 100 24.4678
111.575 100 29.4959
112.742 100 29.2733
117.803 100 24.5268
113.459 100 31.1209
115.807 100 32.5388
114.791 100 34.2103
116.011 100 33.7196
114.537 100 31.5889
118.412 100 44.3572
127.787 100 41.5074
118.304 100 34.5556
127.114 100 56.0267
128.972 100 56.8043
131.668 100 55.8684
133.987 100 58.0458
133.177 100 66.5016
132.962 100 60.362
131.867 100 63.593
134.54 100 68.7103
132.155 100 66.7864
138.089 100 75.7844
139.06 100 75.175
140.153 100 75.5466
141.182 100 75.1849
142.182 100 74.7559
143.245 100 74.4733
145.051 100 74.9484
146.048 100 74.4959
147.097 100 73.9933
149.042 100 74.3615
149.719 100 73.5554
74.554 100 74.742
75.5551 100 75.2282
76.5326 100 74.5892
77.489 100 75.2054
78.5515 100 75.5811
80.5478 100 75.4705
81.5446 100 76.0366
82.8398 100 76.3403
83.9543 100 76.416
85.154 100 76.4097
86.5235 100 76.6022
86.8203 100 77.6375
88.7927 100 77.1573
91.7261 100 66.0007
90.3985 100 63.1244
93.2248 100 61.9911
92.582 100 59.1473
93.233 100 58.2978
94.6626 100 58.3544
95.8781 100 55.3743
98.0019 100 54.6532
104.572 100 46.0215
105.418 100 45.3013
106.591 100 45.6638
99.4424 100 42.6047
107.514 100 45.1363
107.438 100 43.7999
105.521 100 44.0322
111.009 100 30.8015
112.066 100 31.2625
112.446 100 30.2732
113.69 100 29.8867
121.533 100 44.1785
118.069 100 43.2303
117.986 100 45.3676
120.989 100 45.0545
118.391 100 46.3676
119.019 100 45.2792
120.619 100 46.0166
126.087 100 54.9594
129.575 100 55.8332
130.16 100 57.5082
132.74 100 57.9638
131.933 100 58.703
132.68 100 61.3914
132.452 100 62.4893
132.7 100 65.4164
136.359 100 76.3299
137.368 100 76.8397
138.732 100 76.8616
139.897 100 76.6673
141.006 100 76.327
141.957 100 75.8724
142.946 100 75.6027
144.024 100 75.3633
145.974 100 75.6176
146.935 100 75.1122
148.024 100 74.7394
149.026 100 75.5246
150.008 100 74.8659
74.606 100 75.8216
75.5428 100 76.3214
76.4815 100 75.7296
77.6575 100 76.3254
79.4509 100 76.0755
80.5443 100 76.5369
81.8122 100 77.0687
82.8006 100 77.4007
84.6579 100 77.2949
85.7507 100 77.3269
85.9305 100 79.2704
87.9119 100 77.8566
87.6288 100 76.8021
92.337 100 64.9486
91.4548 100 64.0084
91.9317 100 62.9813
93.3022 100 60.2503
92.1207 100 60.9186
94.0335 100 59.2916
95.1309 100 59.378
95.4836 100 57.1586
98.4078 100 55.8206
104.531 100 44.7005
105.459 100 49.9438
105.835 100 46.3575
105.865 100 47.7392
108.11 100 47.5909
110.68 100 47.5624
108.565 100 43.7928
111.645 100 32.7736
113.338 100 32.2908
115.815 100 43.4759
115.366 100 45.5296
115.823 100 46.516
117.686 100 47.2096
119.696 100 46.3868
118.9 100 47.2691
120.148 100 44.0978
125.865 100 56.1324
128.379 100 57.8837
129.625 100 58.7449
131.135 100 59.5907
131.868 100 60.4961
131.295 100 61.7557
131.208 100 62.856
131.788 100 64.6789
131.549 100 65.8292
136.957 100 75.4332
137.099 100 78.2581
138.238 100 78.2164
139.487 100 77.6589
140.606 100 77.4679
141.796 100 77.1368
142.81 100 76.7748
143.845 100 76.4441
144.897 100 75.9707
146.85 100 76.1936
147.898 100 75.8776
148.757 100 76.5306
150.014 100 75.9101
74.6057 100 76.9853
75.7879 100 77.4325
76.648 100 76.9061
78.6541 100 76.7453
79.6313 100 77.1883
80.6761 100 77.7424
81.6484 100 78.161
82.7481 100 78.4832
83.7367 100 77.9655
84.8759 100 78.4194
85.6639 100 80.2837
89.3203 100 78.452
89.6524 100 76.322
95.3559 100 63.0494
92.5295 100 63.8643
94.2233 100 61.3572
96.2648 100 61.5392
95.9101 100 60.3438
95.6813 100 58.2819
96.82 100 57.3321
96.5904 100 56.1514
102.744 100 54.0256
104.77 100 48.8678
107.161 100 47.9229
106.743 100 46.8626
108.114 100 48.6944
109.147 100 48.1468
110.323 100 48.617
107.726 100 46.3512
110.84 100 35.1005
111.176 100 36.2496
116.453 100 45.3877
113.528 100 48.3483
114.667 100 47.6877
115.937 100 47.8074
117.219 100 46.2091
117.468 100 48.3289
117.824 100 49.4823
121.949 100 53.2963
128.209 100 56.0048
127.602 100 57.1065
128.443 100 59.0587
130.09 100 59.8576
130.734 100 60.7618
129.377 100 61.1317
130.431 100 64.8929
130.465 100 63.7872
136.351 100 77.4153
135.802 100 78.5477
138.84 100 80.1368
139.029 100 78.9075
140.114 100 78.4947
141.416 100 78.2794
142.508 100 77.8734
143.558 100 77.477
144.663 100 77.1521
145.737 100 76.731
147.671 100 76.8827
148.55 100 77.6102
149.66 100 77.2245
74.849 100 78.0788
75.8798 100 78.793
76.7468 100 78.1886
77.5868 100 77.437
78.5463 100 77.8875
79.7639 100 78.3955
80.7319 100 78.9373
81.731 100 79.2187
82.8257 100 79.628
83.8939 100 79.0197
84.8679 100 79.5435
86.9084 100 78.718
89.6194 100 79.7154
88.2362 100 75.581
90.7707 100 76.2331
94.3652 100 62.5316
96.2794 100 62.6027
97.602 100 61.4246
96.9938 100 60.551
96.9117 100 58.3882
98.0218 100 57.2258
100.187 100 56.4466
104.482 100 52.6306
104.516 100 51.531
105.981 100 48.8932
107.151 100 49.0569
108.69 100 51.0799
108.892 100 49.5014
112.078 100 47.4652
111.166 100 46.5202
114.537 100 46.4965
113.78 100 49.5171
115.255 100 48.9078
115.936 100 49.94
116.749 100 49.166
118.765 100 48.3426
118.952 100 49.7591
121.487 100 52.288
124.458 100 57.1666
126.497 100 57.0276
127.253 100 58.1474
128.715 100 60.1169
127.866 100 61.1204
128.886 100 62.0477
130.27 100 61.7257
135.183 100 76.1406
136.811 100 73.2346
135.424 100 79.6872
137.694 100 79.3944
139.915 100 79.6981
141.074 100 79.6664
141.974 100 80.4982
142.269 100 79.3846
143.429 100 78.5092
144.43 100 78.1532
145.703 100 77.9494
146.643 100 77.2787
147.392 100 78.1054
148.506 100 78.8089
149.521 100 78.2632
73.8813 100 78.6383
74.9783 100 79.3562
76.9111 100 79.3255
77.8754 100 78.6694
78.9944 100 79.2283
78.8733 100 81.533
80.8399 100 80.0123
81.931 100 80.3088
82.9063 100 80.7097
84.0543 100 80.3342
85.4354 100 81.353
87.974 100 78.9822
90.114 100 80.8891
89.2309 100 75.1742
95.0672 100 64.3319
95.2976 100 61.9627
96.2517 100 63.8425
98.3591 100 62.3257
97.3511 100 59.4762
98.026 100 58.2973
99.1077 100 56.667
101.254 100 56.0613
103.812 100 53.837
106.537 100 50.3709
109.194 100 52.2948
109.536 100 50.4417
107.329 100 53.4
110.531 100 49.6775
106.318 100 53.9119
108.376 100 54.303
117.619 100 55.006
116.741 100 54.0575
114.851 100 50.5877
115.309 100 54.5125
115.003 100 51.7296
116.098 100 51.0601
116.993 100 50.2784
120.918 100 53.1747
122.27 100 55.2506
125.442 100 57.5135
126.209 100 58.2873
127.7 100 59.9464
126.905 100 60.606
127.673 100 62.7579
129.691 100 63.0485
129.352 100 64.2532
135.837 100 75.0925
130.274 100 80.5096
136.568 100 79.6442
139.769 100 80.7932
140.868 100 80.7512
141.914 100 81.6034
143.078 100 80.3546
143.819 100 79.4693
145.294 100 80.4596
145.455 100 79.2885
146.503 100 78.7116
147.401 100 79.3124
149.593 100 79.3254
150.567 100 78.4508
73.8045 100 79.6776
74.9747 100 80.5069
75.9891 100 79.9642
77.0846 100 80.3941
77.9918 100 79.7144
78.0009 100 80.9592
79.4293 100 80.2875
80.9943 100 81.116
82.0263 100 81.3841
83.4993 100 81.7592
84.7525 100 82.1674
85.7998 100 82.5001
86.8961 100 79.8705
86.7378 100 81.9722
86.7507 100 83.1206
90.881 100 79.6246
96.3747 100 64.9317
97.3763 100 63.0519
99.6772 100 59.7884
98.1928 100 60.3921
98.6143 100 59.2793
99.1353 100 57.9686
104.604 100 54.5753
105.641 100 51.089
107.612 100 50.8773
108.456 100 53.1636
107.916 100 52.0063
105.359 100 55.4484
106.487 100 55.149
108.877 100 57.0203
116.35 100 55.1244
119.767 100 55.2033
120.314 100 56.4972
116.981 100 52.382
116.076 100 53.3013
117.242 100 51.306
118.069 100 50.6275
121.262 100 54.5093
124.44 100 58.2967
126.718 100 59.341
125.824 100 60.1894
125.626 100 61.555
126.815 100 62.0408
128.615 100 63.4186
131.19 100 79.8717
137.938 100 82.1614
138.66 100 81.273
137.484 100 80.5475
139.129 100 82.2422
139.834 100 83.1007
140.203 100 81.8248
143.021 100 81.4955
144.029 100 81.7503
144.14 100 80.524
146.305 100 81.1186
146.394 100 80.0985
147.381 100 80.5188
148.351 100 79.8089
149.38 100 80.3765
150.682 100 79.7143
73.8921 100 80.6912
74.6093 100 81.6784
75.8957 100 81.0395
76.919 100 81.4815
77.5815 100 83.1565
75.6863 100 84.4375
77.7614 100 82.0921
79.9477 100 81.3074
80.6982 100 82.2302
79.6089 100 82.5287
82.2307 100 82.7674
83.663 100 83.8648
84.6525 100 83.3368
85.7647 100 83.6145
88.0777 100 83.4174
90.4078 100 78.5065
97.3232 100 65.3543
97.4461 100 64.2046
99.0711 100 61.5541
101.234 100 61.3663
100.314 100 57.5582
[...]
POINT_DATA 1600
SCALARS mass double
LOOKUP_TABLE default
1
1
1
1
1
1
1
1
1
1
1
1
1
1
1
1
1
1
1
1
1
1
1
1
1
1
1
1
1
1
1
1
1
1
1
1
1
1
1
1
1
1
1
1
1
1
1
1
1
1
1
1
1
1
1
1
1
1
1
1
1
1
1
1
1
1
1
1
1
1
1
1
1
1
1
1
1
1
1
1
1
1
1
1
1
1
1
1
1
1
1
1
1
1
1
1
1
1
1
1
1
1
1
1
1
1
1
1
1
1
1
1
1
1
1
1
1
1
1
1
1
1
1
1
1
1
1
1
1
1
1
1
1
1
1
1
1
1
1
1
1
1
1
1
1
1
1
1
1
1
1
1
1
1
1
1
1
1
1
1
1
1
1
1
1
1
1
1
1
1
1
1
1
1
1
1
1
1
1
1
1
1
1
1
1
1
1
1
1
1
1
1
1
1
1
1
1
1
1
1
1
1
1
1
1
1
1
1
1
1
1
1
1
1
1
1
1
1
1
1
1
1
1
1
1
1
1
1
1
1
1
1
1
1
1
1
1
1
1
1
1
1
1
1
1
1
1
1
1
1
1
1
1
1
1
1
1
1
1
1
1
1
1
1
1
1
1
1
1
1
1
1
1
1
1
1
1
1
1
1
1
1
1
1
1
1
1
1
1
1
1
1
1
1
1
1
1
1
1
1
1
1
1
1
1
1
1
1
1
1
1
1
1
1
1
1
1
1
1
1
1
1
1
1
1
1
1
1
1
1
1
1
1
1
1
1
1
1
1
1
1
1
1
1
1
1
1
1
1
1
1
1
1
1
1
1
1
1
1
1
1
1
1
1
1
1
1
1
1
1
1
1
1
1
1
1
1
1
1
1
1
1
1
1
1
1
1
1
1
1
1
1
1
1
1
1
1
1
1
1
1
1
1
1
1
1
1
1
1
1
1
1
1
1
1
1
1
1
1
1
1
1
1
1
1
1
1
1
1
1
1
1
1
1
1
1
1
1
1
1
1
1
1
1
1
1
1
1
1
1
1
1
1
1
1
1
1
1
1
1
1
1
1
1
1
1
1
1
1
1
1
1
1
1
1
1
1
1
1
1
1
1
1
1
1
1
1
1
1
1
1
1
1
1
1
1
1
1
1
1
1
1
1
1
1
1
1
1
1
1
1
1
1
1
1
1
1
1
1
1
1
1
1
1
1
1
1
1
1
1
1
1
1
1
1
1
1
1
1
1
1
1
1
1
1
1
1
1
1
1
1
1
1
1
1
1
1
1
1
1
1
1
1
1
1
1
1
1
1
1
1
1
1
1
1
1
1
1
1
1
1
1
1
1
1
1
1
1
1
1
1
1
1
1
1
1
1
1
1
1
1
1
1
1
1
1
1
1
1
1
1
1
1
1
1
1
1
1
1
1
1
1
1
1
1
1
1
1
1
1
1
1
1
1
1
1
1
1
1
1
1
1
1
1
1
1
1
1
1
1
1
1
1
1
1
1
1
1
1
1
1
1
1
1
1
1
1
1
1
1
1
1
1
1
1
1
1
1
1
1
1
1
1
1
1
1
1
1
1
1
1
1
1
1
1
1
1
1
1
1
1
1
1
1
1
1
1
1
1
1
1
1
1
1
1
1
1
1
1
1
1
1
1
1
1
1
1
1
1
1
1
1
1
1
1
1
1
1
1
1
1
1
1
1
1
1
1
1
1
1
1
1
1
1
1
1
1
1
1
1
1
1
1
1
1
1
1
1
1
1
1
1
1
1
1
1
1
1
1
1
1
1
1
1
1
1
1
1
1
1
1
1
1
1
1
1
1
1
1
1
1
1
1
1
1
1
1
1
1
1
1
1
1
1
1
1
1
1
1
1
1
1
1
1
1
1
1
1
1
1
1
1
1
1
1
1
1
1
1
1
1
1
1
1
1
1
1
1
1
1
1
1
1
1
1
1
1
1
1
1
1
1
1
1
1
1
1
1
1
1
1
1
1
1
1
1
1
1
1
1
1
1
1
1
1
1
1
1
1
1
1
1
1
1
1
1
1
1
1
1
1
1
1
1
1
1
1
1
1
1
1
1
1
1
1
1
1
1
1
1
1
1
1
1
1
1
1
1
1
1
1
1
1
1
1
1
1
1
1
1
1
1
1
1
1
1
1
1
1
1
1
1
1
1
1
1
1
1
1
1
1
1
1
1
1
1
1
1
1
1
1
1
1
1
1
1
1
1
1
1
1
1
1
1
1
1
1
1
1
1
1
1
1
1
1
1
1
1
1
1
1
1
1
1
1
1
1
1
1
1
1
1
1
1
1
1
1
1
1
1
1
1
1
1
1
1
1
1
1
1
1
1
1
1
1
1
1
1
1
1
1
1
1
1
1
1
1
1
1
1
1
1
1
1
1
1
1
1
1
1
1
1
1
1
1
1
1
1
1
1
1
1
1
1
1
1
1
1
1
1
1
1
1
1
1
1
1
1
1
1
1
1
1
1
1
1
1
1
1
1
1
1
1
1
1
1
1
1
1
1
1
1
1
1
1
1
1
1
1
1
1
1
1
1
1
1
1
1
1
1
1
1
1
1
1
1
1
1
1
1
1
1
1
1
1
1
1
1
1
1
1
1
1
1
1
1
1
1
1
1
1
1
1
1
1
1
1
1
1
1
1
1
1
1
1
1
1
1
1
1
1
1
1
1
1
1
1
1
1
1
1
1
1
1
1
1
1
1
1
1
1
1
1
1
1
1
1
1
1
1
1
1
1
1
1
1
1
1
1
1
1
1
1
1
1
1
1
1
1
1
1
1
1
1
1
1
1
1
1
1
1
1
1
1
1
1
1
1
1
1
1
1
1
1
1
1
1
1
1
1
1
1
1
1
1
1
1
1
1
1
1
1
1
1
1
1
1
1
1
1
1
1
1
1
1
1
1
1
1
1
1
1
1
1
1
1
1
1
1
1
1
1
1
1
1
1
1
1
1
1
1
1
1
1
1
1
1
1
1
1
1
1
1
1
1
1
1
1
1
1
1
1
1
1
1
1
1
1
1
1
1
1
1
1
1
1
1
1
1
1
1
1
1
1
1
1
1
1
1
1
1
1
1
1
1
1
1
1
1
1
1
1
1
1
1
1
1
1
1
1
1
1
1
1
1
1
1
1
1
1
1
1
1
1
1
1
1
1
1
1
1
1
1
1
1
1
1
1
1
1
1
1
1
1
1
1
1
1
1
1
1
1
1
1
1
1
1
1
1
1
1
1
1
1
1
1
1
1
1
1
1
1
1
1
1
1
1
1
1
1
1
1
1
1
1
1
1
1
1
1
1
1
1
1
1
1
1
1
1
1
1
1
1
1
1
1
1
1
1
1
1
1
1
1
1
1
1
1
1
1
1
1
1
1
1
1
1
1
1
1
1
1
1
1
1
1
1
1
1
1
1
1
1
1
1
1
1
1
1
1
1
1
1
1
1
1
1
1
1
1
1
1
1
1
1
1
1
1
1
1
1
1
1
1
1
1
1
1
1
1
1
1
1
1
1
1
1
1
1
1
1
1
1
1
1
1
1
1
1
1
1
1
1
1
1
1
1
1
1
1
1
1
1
1
1
1
1
1
1
1
1
1
1
1
1
1
1
1
1
1
VECTORS force double
1.45763 0 18.0895
-3.67204 0 19.1866
-14.8441 0 7.93125
8.96865 0 5.70165
-25.0951 0 0.790528
-14.9031 0 2.85413
-4.80041 0 1.42293
-39.1424 0 9.17641
48.9176 0 38.8711
-8.43041 0 -17.7513
-19.0918 0 -5.87744
27.0393 0 -31.45
-15.1607 0 -17.2541
19.3299 0 7.08931
0 0 0
-39.24 0 -7.82216
5.51085 0 35.8617
-9.96355 0 -25.2071
0 0 0
28.0049 0 -20.39
24.1125 0 30.4276
-17.0673 0 -13.7164
-4.58488 0 7.51289
4.16614 0 7.49084
18.3145 0 6.65859
-16.7474 0 -4.86045
-17.0787 0 3.25307
-1.43683 0 13.8066
6.30299 0 8.7106
14.2303 0 -7.30015
-32.1973 0 93.364
-1.17607 0 0.83775
5.30824 0 -40.2006
33.8584 0 -30.6499
1.8589 0 -3.81456
-16.9301 0 2.94218
-7.99291 0 13.0103
11.0696 0 11.391
5.40119 0 0.388767
-36.6644 0 50.1323
37.3487 0 22.8939
0 0 0
4.79334 0 9.04427
-8.19113 0 -10.5685
12.8261 0 7.4381
-15.0936 0 -2.00417
-10.974 0 9.19648
2.52329 0 -21.6516
7.17273 0 -19.3387
-65.616 0 21.1699
4.35097 0 18.5085
-51.0057 0 27.6815
51.0027 0 -40.976
-3.79468 0 -45.6938
51.665 0 -17.8114
-8.4346 0 24.6928
25.4393 0 8.41963
-22.0959 0 -16.8162
-12.8793 0 7.14806
4.97753 0 18.1867
20.6292 0 10.8588
-5.7358 0 -7.39519
-7.49327 0 22.8702
8.70664 0 2.77293
-6.50892 0 12.0729
9.3795 0 -30.4964
41.0988 0 21.8656
36.3637 0 15.2142
-9.41666 0 9.8166
-8.14144 0 20.8894
1.48446 0 19.3239
-7.01503 0 9.6272
-9.39443 0 14.0362
12.7405 0 -1.9664
21.8525 0 6.85736
-6.50109 0 19.6897
40.7984 0 0.132551
-19.5879 0 46.0596
18.0326 0 -64.3203
26.1293 0 2.81471
-17.2763 0 -43.3324
0 0 0
38.5352 0 49.8932
1.73132 0 5.41678
1.94215 0 6.04179
1.83883 0 5.91895
-49.1917 0 17.0699
2.49927 0 -4.60666
0 0 0
8.16646 0 -7.78228
3.91187 0 -52.9032
0 0 0
-7.2674 0 -5.16316
0.701475 0 11.8687
6.07631 0 -15.7801
5.48974 0 -8.76769
-14.7979 0 8.1631
-1.04501 0 -21.8359
0 0 0
19.5265 0 -77.9107
-26.0658 0 15.7118
1.46242 0 16.9911
-4.42564 0 6.76187
-33.8465 0 0.626673
31.6109 0 -5.87522
13.5729 0 -35.595
96.6821 0 88.5773
72.534 0 -2.51153
-27.7069 0 1.60636
-6.03346 0 15.3741
8.06728 0 6.92778
-10.563 0 5.42683
-52.0786 0 -26.7134
5.47912 0 58.678
-40.7917 0 36.1976
20.0546 0 -47.3225
-4.69839 0 -29.223
5.75628 0 -4.31066
-11.4951 0 38.8639
18.5513 0 -20.2303
6.34472 0 -33.2568
-21.9319 0 -40.0033
2.83649 0 -6.31673
4.29998 0 -14.6438
-59.0866 0 -33.0436
-68.4026 0 16.471
3.90598 0 -43.373
-18.8745 0 -46.2693
9.68707 0 -12.5278
39.3789 0 -101.757
10.8252 0 -61.6787
9.39864 0 -0.201067
7.88831 0 -3.13989
17.522 0 -10.3772
12.4772 0 6.12872
13.5395 0 -2.90317
-17.5536 0 19.8214
1.5361 0 26.3548
-71.7567 0 14.7015
-43.7853 0 -18.2592
-5.41971 0 14.5802
9.1813 0 -5.47208
42.5468 0 2.13909
23.7882 0 -31.803
0 0 0
18.1342 0 -21.2439
17.2699 0 0.908859
-59.2626 0 2.96788
10.9667 0 -3.0094
-8.20268 0 31.6466
6.06506 0 15.083
-15.0392 0 6.77083
24.8757 0 -54.4523
2.92154 0 10.2956
-74.3662 0 1.06975
-20.4721 0 -13.2303
-9.4042 0 -52.0081
64.1397 0 19.9653
98.4862 0 8.23458
2.6982 0 15.7857
-47.3737 0 -4.87815
-5.37503 0 -4.76651
13.8121 0 -2.54319
-8.93429 0 9.49182
-23.5966 0 19.0917
-25.1842 0 8.24952
-17.0639 0 12.8141
-28.1194 0 -3.06856
4.43865 0 -2.61447
-12.4833 0 -13.3764
-8.73739 0 -47.6498
-46.9723 0 19.8425
15.991 0 56.3164
69.8326 0 -11.4844
-26.8371 0 -39.626
-55.3169 0 -13.6229
44.5088 0 -7.51879
-18.5297 0 12.3392
-28.7838 0 -77.3381
-1.24626 0 -45.9964
-24.4633 0 11.2892
31.2929 0 39.903
50.2836 0 25.6456
-25.0603 0 -16.9189
121.561 0 -11.0226
-1.47445 0 38.1189
-45.9086 0 1.26073
34.4336 0 27.2949
-59.3903 0 85.0204
-13.8351 0 37.8911
15.9235 0 -51.5682
1.87871 0 20.3787
2.74301 0 -17.2859
-27.3604 0 10.149
-13.8539 0 4.43629
-18.4125 0 -21.692
-2.64472 0 -7.51201
7.71804 0 -6.92994
-26.4948 0 -4.88506
20.0749 0 -1.65686
7.91657 0 7.89061
-13.5779 0 -11.0291
-9.02867 0 -8.32703
6.85191 0 -6.63309
-110.365 0 23.8022
18.5612 0 -4.79584
100.711 0 -47.889
8.57548 0 -6.91861
-3.31877 0 2.22945
41.9675 0 -14.4754
12.5723 0 -8.86329
0.516089 0 1.40775
-22.5656 0 -2.4551
7.27461 0 15.4899
9.04507 0 19.0598
-149.032 0 46.4475
24.2995 0 25.3953
11.7036 0 13.2383
5.63112 0 -10.3584
9.78677 0 8.40836
-7.46484 0 5.01826
25.9326 0 4.44719
-17.1515 0 11.388
88.9795 0 -12.5114
-104.694 0 -103.396
-8.26971 0 26.5714
11.1242 0 -15.0289
13.186 0 -8.4187
-2.13507 0 9.73657
-30.5536 0 -29.8344
-39.0683 0 1.99107
31.0633 0 12.1081
-84.9562 0 -47.3896
-54.3286 0 -66.3934
3.02103 0 -38.19
11.5824 0 90.7258
-2.41388 0 24.8153
9.43993 0 -92.9548
8.1416 0 52.699
18.3531 0 71.4075
17.0293 0 -6.95048
-90.4544 0 62.9068
66.6126 0 -71.8443
-55.1212 0 33.5659
20.6399 0 29.6088
-30.5434 0 -24.3136
31.4406 0 -8.16091
-7.86338 0 31.5686
20.9487 0 -25.1301
-4.08116 0 -6.32009
8.3464 0 38.504
-16.8048 0 -6.63888
-11.4213 0 7.44069
-55.2634 0 61.2799
31.3784 0 13.4856
0.428347 0 14.6369
45.8133 0 -63.2996
-9.11208 0 1.3957
88.0243 0 -1.32103
-3.91107 0 -39.2351
29.6494 0 32.3639
-13.4374 0 2.94228
21.4769 0 7.40206
-107.064 0 40.281
39.5686 0 31.327
60.5671 0 -28.5253
-4.6636 0 12.3459
-18.0982 0 -17.6468
-6.19703 0 -5.19861
16.768 0 -1.6128
-1.19513 0 -13.1569
10.0514 0 8.75262
11.4669 0 3.7101
7.4311 0 2.36084
-12.1536 0 0.290612
3.08972 0 -5.17088
17.486 0 0.357517
5.13933 0 1.48758
51.5308 0 19.6769
8.32561 0 7.0999
9.15536 0 -34.237
-2.44546 0 -20.3036
-36.4733 0 -0.530483
19.8679 0 -26.0719
5.94575 0 -77.1671
4.50442 0 0.0352677
24.6975 0 7.71729
-1.06237 0 20.355
44.535 0 -4.88069
-3.17689 0 -9.22814
41.3151 0 36.3706
34.0403 0 49.7267
-0.00196578 0 -3.03212
44.277 0 55.7625
52.8852 0 12.2598
38.3024 0 -61.6814
-25.8484 0 -14.7335
15.8576 0 88.1301
-1.83007 0 22.2084
-3.17427 0 -48.894
17.7987 0 15.7811
-5.86446 0 1.66443
32.1089 0 -28.5837
-2.98749 0 3.88918
92.3456 0 -37.1322
-16.6982 0 -14.9761
-44.5196 0 -46.9758
64.8594 0 44.8387
6.03833 0 -26.8984
-15.5839 0 32.4526
-17.0915 0 -3.42641
-1.85178 0 11.3424
16.0939 0 -8.04997
-30.6791 0 21.7307
-1.8491 0 17.3365
-21.0894 0 -8.34109
68.0796 0 8.58548
21.5727 0 26.9785
-4.76339 0 -17.2296
-5.15956 0 38.0394
5.88524 0 -26.6679
7.35592 0 -2.3811
2.80724 0 24.2384
22.3596 0 -5.73399
-0.259193 0 2.24319
-74.3141 0 24.4548
-21.2311 0 36.9558
6.28098 0 -2.47189
-14.0822 0 -5.47412
4.8282 0 13.6917
21.3094 0 3.33686
6.11301 0 -8.88638
8.65806 0 -3.84056
-18.6886 0 -2.17687
-10.0194 0 5.73412
-20.0165 0 25.0392
-17.8839 0 11.0865
18.4759 0 -35.3543
-43.1694 0 -14.7865
2.14842 0 22.0954
36.6108 0 7.65629
77.2583 0 36.7832
21.5063 0 1.58024
-26.0471 0 60.0332
-70.7712 0 44.9683
14.1963 0 -98.3475
-0.273409 0 1.04695
0.312116 0 -18.081
6.12397 0 -7.70988
0.623343 0 -16.3293
10.3062 0 -10.2184
-7.68811 0 -12.9366
-0.261123 0 3.33542
-61.8555 0 12.4721
29.4798 0 66.2902
-17.3748 0 -15.9633
12.7905 0 32.8642
39.4683 0 -9.99786
11.7533 0 -103.205
-52.3298 0 8.78835
14.0496 0 -44.1491
-37.7551 0 15.0227
1.83364 0 -28.252
-57.1998 0 3.43771
-5.34782 0 -10.8329
28.8952 0 43.9665
3.19734 0 13.2224
-46.5254 0 -23.0489
54.5144 0 31.4948
-12.8649 0 -7.16967
24.4909 0 -1.12677
8.74115 0 1.55835
-1.26464 0 -16.1813
24.4134 0 5.06133
20.1499 0 -13.7406
-25.7344 0 -7.48889
0.238765 0 -25.9392
-34.7193 0 38.8411
17.0984 0 -5.8482
3.81434 0 31.6481
-7.59762 0 28.8769
-4.19394 0 2.93336
9.45904 0 -22.4462
0.619066 0 2.91971
-18.6373 0 -10.2084
32.3955 0 -30.6089
9.6377 0 -0.177611
-10.0114 0 23.4378
90.6789 0 76.164
-13.0746 0 3.16832
-11.0046 0 -1.91436
70.9948 0 89.3104
18.3109 0 -2.46865
19.5085 0 -2.19251
11.3195 0 -12.0779
0.473598 0 -2.61029
-5.10319 0 -32.9592
-72.2623 0 32.6268
-15.5221 0 -7.42904
39.1026 0 8.39572
-32.4492 0 18.3478
-19.2496 0 -50.4138
-69.4237 0 27.6664
4.38879 0 7.96031
-24.4448 0 -21.1871
16.6364 0 -7.45853
6.80512 0 22.5422
2.54535 0 45.1352
5.76597 0 -8.29634
-22.7862 0 9.80303
7.22108 0 17.4499
-16.3054 0 -0.835647
-21.5651 0 -9.94625
17.5256 0 45.702
14.6218 0 -33.3544
12.4635 0 1.23924
-36.3336 0 12.8874
-4.89422 0 1.86826
1.39622 0 2.72977
18.573 0 20.8485
8.0801 0 -34.173
-18.5569 0 -17.9219
-3.09408 0 -25.4942
-28.0528 0 -2.76349
-2.37407 0 54.0683
-30.7165 0 -17.5261
-2.22989 0 6.24006
8.84903 0 -12.0398
26.286 0 37.3078
-0.32482 0 -9.54002
-36.7312 0 27.6073
-16.5323 0 6.97953
-8.37567 0 -10.142
10.0425 0 -6.26327
10.1798 0 -4.21394
-20.4782 0 -5.97949
-44.2183 0 -20.9152
3.62363 0 2.52001
-50.064 0 83.801
-13.8537 0 -3.78237
-2.75995 0 2.10173
1.2469 0 -3.58185
20.3254 0 14.0479
1.41935 0 6.04792
-23.5717 0 8.76895
-9.51914 0 -8.55768
8.68237 0 -1.07356
8.07183 0 -6.6504
4.53924 0 2.6741
-4.28412 0 -9.96902
3.6622 0 -11.2984
-67.1088 0 -20.5546
-27.0325 0 -14.5345
-3.57837 0 6.92224
-65.0168 0 -80.209
-27.621 0 35.5991
5.43628 0 -30.4681
56.8417 0 7.4011
16.6494 0 -3.56988
-3.73997 0 3.9393
14.8175 0 -9.14958
7.44286 0 -12.8904
-10.1827 0 -10.6601
10.9349 0 -30.5433
16.3794 0 2.23178
4.55578 0 11.3807
-4.45643 0 -29.0603
9.71941 0 -12.2335
2.72244 0 13.982
22.4459 0 -29.781
-2.95037 0 1.48284
-49.9807 0 -10.164
59.9491 0 -23.6653
31.3819 0 30.74
-7.4866 0 79.3642
-19.491 0 -102.972
20.2852 0 -21.4397
12.7469 0 95.778
22.6738 0 -5.57667
-13.2739 0 -21.9991
8.76745 0 94.0979
-0.668737 0 -17.1901
25.2683 0 29.3453
-39.3662 0 -16.2328
-61.9612 0 48.07
10.7592 0 -22.7476
45.8198 0 2.98991
-17.2648 0 15.4159
-1.84634 0 -18.3727
14.6495 0 -23.272
-2.3715 0 -3.06358
-20.1528 0 -39.9342
15.2266 0 1.32363
-31.2318 0 -31.046
-36.8552 0 -24.5983
23.0056 0 14.7153
35.5749 0 14.8472
-48.6851 0 -11.2967
20.7231 0 -30.0552
9.23295 0 7.36732
-17.5071 0 10.8165
-1.98285 0 0.0752138
-100.354 0 -49.1274
6.43965 0 -35.8638
-28.7856 0 -33.4797
-2.30726 0 -12.6843
14.6009 0 15.2538
-28.5171 0 35.8991
-12.262 0 -17.2017
31.0249 0 -50.1559
13.5347 0 12.2099
-43.6494 0 -33.795
51.988 0 18.342
2.97337 0 33.7831
6.13786 0 -10.1712
-10.9611 0 -28.7937
6.09362 0 0.74885
-59.0403 0 0.383056
65.1244 0 8.43035
0.942204 0 10.6933
-10.3557 0 -17.736
-1.75957 0 -13.859
-16.8741 0 4.72101
-12.9822 0 1.73479
-25.0562 0 9.69698
7.16072 0 -26.4384
6.23612 0 4.44721
-24.5199 0 -13.5952
10.3117 0 8.77278
12.3873 0 -2.33991
0.378921 0 1.47431
-20.2936 0 40.6912
20.4227 0 33.4125
36.9559 0 -14.1453
-3.61722 0 -0.937081
11.19 0 -7.01884
-1.35139 0 24.6572
-26.1071 0 48.6259
-37.6997 0 37.7793
21.8471 0 -17.5073
13.9194 0 -5.88497
3.15592 0 -3.0398
8.01889 0 6.67945
-9.74237 0 30.4701
-13.388 0 -21.1509
60.5355 0 -22.8334
27.0927 0 -17.1142
11.6382 0 4.66021
3.72669 0 27.7148
8.5185 0 18.7894
-13.0185 0 3.18269
7.6814 0 2.00892
6.06401 0 60.9764
10.2549 0 -47.672
-16.4674 0 -14.0832
-9.99958 0 -4.54195
19.1129 0 -6.59903
-27.4819 0 -18.6962
-15.7602 0 -6.32643
39.0771 0 180.819
0.210086 0 -152.007
-2.88111 0 -7.12055
25.2417 0 -103.684
-4.06999 0 -19.2633
-3.65003 0 -4.40337
-11.6184 0 24.8557
-3.59705 0 5.34287
11.8329 0 17.3424
2.17292 0 17.6754
1.09661 0 2.80234
-8.3901 0 -10.4032
30.8773 0 3.29374
-14.9853 0 -6.53856
1.30992 0 -6.82424
-0.249347 0 3.28216
38.275 0 -40.1189
3.42252 0 11.2098
14.945 0 -1.45493
0.0204305 0 12.5929
-46.05 0 -29.4336
30.5382 0 21.4618
36.1868 0 23.5359
18.6932 0 94.8308
8.10795 0 11.0833
-15.9081 0 6.13531
2.32715 0 6.074
-10.1228 0 19.3782
4.56258 0 -17.9045
16.879 0 -30.4727
-31.5647 0 -93.7427
135.228 0 -78.2578
1.69348 0 2.17123
-152.288 0 192.641
-11.9495 0 -0.568069
-60.1952 0 -33.0968
167.314 0 -140.695
-1.79613 0 -9.55728
-10.6377 0 -16.6993
-19.4876 0 34.497
-1.17087 0 -24.0409
-38.6751 0 140.759
0.859662 0 -25.0098
19.6661 0 20.9466
-3.67303 0 12.851
-1.63216 0 -16.8114
9.19803 0 -8.92824
-57.5034 0 -3.71932
-37.4455 0 -46.5245
39.4701 0 38.8769
-4.76631 0 7.78864
-3.67632 0 19.1526
21.7248 0 -47.8954
-8.14609 0 11.2106
24.8826 0 16.6639
-0.597354 0 -1.55448
3.31695 0 16.2878
14.5193 0 17.0047
-5.40018 0 1.98479
-1.93798 0 0.338342
-16.876 0 -19.4371
24.5167 0 5.98704
-35.8635 0 -7.79502
-3.23769 0 3.38526
16.3047 0 -1.82857
-10.4845 0 0.942265
5.79241 0 -36.6103
38.802 0 4.0665
-7.22352 0 3.45413
-2.67194 0 6.57912
-13.03 0 4.70835
-2.45217 0 15.8043
11.7866 0 1.89674
13.8575 0 28.531
-8.65534 0 5.06694
170.948 0 -18.3457
-3.58512 0 -27.2008
9.08795 0 -17.648
-9.30466 0 12.5356
-6.05861 0 12.6585
14.9972 0 0.151737
14.2805 0 -38.8883
-1.49251 0 -8.32937
-5.722 0 23.2182
8.49677 0 7.23054
-13.0204 0 38.2358
-19.3022 0 2.9918
10.3406 0 -29.2313
-4.58453 0 -7.76011
-10.3314 0 -8.9791
-22.0471 0 45.3426
-78.0506 0 168.028
-8.01562 0 -13.3361
-35.6991 0 -73.2006
25.71 0 -5.99142
-14.2531 0 6.87945
7.73145 0 -22.4252
19.1384 0 -33.3948
-8.64346 0 -6.88956
-4.79235 0 7.72576
15.8882 0 16.0672
-9.77168 0 -4.94415
63.6143 0 -130.367
-10.1594 0 -38.7148
-32.4809 0 -23.0814
-0.518474 0 44.8646
7.09765 0 13.1553
46.4803 0 1.59969
3.59259 0 -2.12633
-45.0945 0 -31.3665
-1.42595 0 0.697264
-3.97795 0 -9.59874
-37.0958 0 34.5645
16.3412 0 -64.8406
-16.9976 0 -26.8218
31.6838 0 50.747
16.6409 0 28.5838
-104.14 0 7.89305
-13.6334 0 -4.89604
-24.1671 0 -17.8315
22.8118 0 43.6077
39.9875 0 -26.4762
11.2752 0 17.0275
-101.279 0 -89.3833
-24.62 0 22.3871
17.2617 0 22.1155
8.97854 0 49.02
39.1606 0 3.63578
-20.2062 0 -33.0761
-10.241 0 2.64644
7.34471 0 3.25186
-7.29969 0 -10.5517
-6.35854 0 -9.70991
-67.7143 0 51.5903
2.28568 0 11.6491
-10.8217 0 52.2074
-19.506 0 46.2608
-6.98684 0 10.7761
19.8722 0 -7.66796
-1.30022 0 -21.5987
-27.6717 0 34.7795
-33.9374 0 14.652
16.7379 0 -29.0786
2.51677 0 -52.9714
12.2845 0 20.8692
64.2447 0 -56.2193
26.4853 0 13.4116
5.83562 0 17.1728
21.7089 0 42.7326
-5.99829 0 1.04526
27.3337 0 4.35998
12.195 0 -11.4145
8.74119 0 -11.1078
-18.518 0 25.3474
15.4921 0 -13.7518
97.8082 0 -44.4643
-2.66245 0 15.4034
-23.8088 0 49.2564
21.985 0 -42.7904
2.24043 0 -16.0899
-11.0233 0 2.49127
23.9445 0 23.1123
-18.2584 0 -3.92912
2.84671 0 -1.01495
-3.27289 0 22.8076
0.451696 0 17.4494
30.0799 0 -7.08893
-10.104 0 15.2471
-44.884 0 -0.00181112
15.1662 0 -14.7824
51.0131 0 15.1155
-8.99095 0 1.88339
-5.9744 0 6.50805
37.546 0 44.6157
4.96733 0 -22.2227
8.22972 0 9.2412
-26.531 0 -15.8645
109.178 0 -22.2085
17.6175 0 -21.6361
-10.3207 0 11.452
19.6402 0 -33.6132
-25.1685 0 -7.82214
-1.48023 0 -1.21004
-6.66398 0 4.6243
-1.83367 0 -1.40041
12.014 0 -1.52596
-22.7629 0 19.4658
-8.27992 0 -24.8977
-1.42426 0 -12.7004
10.6088 0 -19.5771
-13.2842 0 6.58465
-1.35258 0 -1.33951
-76.0862 0 -99.1769
5.93321 0 44.3103
8.78447 0 6.96612
40.2898 0 1.40242
-10.2573 0 -0.594588
-17.8106 0 2.27273
-3.85362 0 0.792047
2.98155 0 4.7199
-13.1491 0 10.4657
-22.4403 0 13.1745
11.9753 0 -7.77983
-16.7345 0 13.0138
3.88504 0 0.447113
-30.5605 0 -10.0368
-11.483 0 -38.9504
-34.0953 0 -9.27488
-28.8747 0 -28.9129
-27.0148 0 11.4151
-19.65 0 -5.08488
3.84968 0 1.80571
10.7301 0 5.45753
-2.44181 0 12.5903
3.41756 0 -9.15802
-120.188 0 94.9011
13.573 0 17.5141
-60.9682 0 39.0626
11.0179 0 5.74615
-3.72192 0 2.44002
-12.0986 0 11.2697
-8.17314 0 -0.586273
2.75107 0 1.00299
13.1805 0 6.32408
-18.6611 0 -32.5013
15.0313 0 20.3584
-29.7293 0 -32.0847
-3.00215 0 23.5491
30.418 0 -62.8416
59.1398 0 48.7427
-36.3996 0 -38.765
13.053 0 -56.8876
-45.6756 0 -3.94998
24.0604 0 58.9653
-49.5207 0 -71.7337
-11.6492 0 -7.25246
-15.2007 0 -30.4372
-8.68213 0 23.1135
-4.08334 0 36.6861
-13.1256 0 7.69804
3.64729 0 3.84792
-19.5786 0 16.9681
10.9822 0 0.735472
14.2201 0 6.06359
69.8439 0 -54.7421
87.632 0 42.6728
-18.3886 0 2.5959
31.3727 0 15.6093
-28.1195 0 -22.9264
-6.01888 0 7.8414
3.76932 0 11.3798
5.71768 0 19.5835
9.00825 0 -23.872
-9.34156 0 1.61027
-48.8188 0 -63.9222
-16.552 0 -10.7639
50.494 0 -7.5231
-3.1912 0 -0.877549
-7.93681 0 -0.66914
31.1696 0 0.249596
46.908 0 2.07935
20.869 0 -32.457
-17.3175 0 -48.1137
9.34809 0 9.52081
31.9185 0 -13.6741
31.2103 0 -64.546
8.23453 0 35.4352
16.5403 0 16.2557
9.5635 0 8.14157
34.5213 0 -31.7923
12.5042 0 10.8858
-47.596 0 -10.6567
50.6018 0 -51.2507
19.4841 0 -38.6696
-19.8967 0 9.25785
25.1162 0 25.4709
-1.3573 0 -1.31144
5.67444 0 -11.8126
-16.0892 0 -11.8099
-18.6921 0 1.53892
37.0409 0 -20.1224
-16.2268 0 -136.661
0.710199 0 -38.7827
1.49299 0 17.327
-18.8824 0 8.53297
29.8259 0 12.826
-74.9626 0 -88.2902
43.2843 0 -58.0543
-70.2592 0 21.6309
-58.8584 0 78.8758
-1.0786 0 -21.5615
15.385 0 -2.88025
-9.25071 0 2.6548
-7.21232 0 -1.88339
23.9426 0 28.3408
-14.7967 0 -40.212
38.8745 0 18.4023
22.4822 0 12.8616
24.5661 0 27.5986
-24.68 0 -12.699
13.1841 0 -9.85527
-13.2407 0 10.1477
37.1147 0 -0.182507
-37.0508 0 -25.7001
1.55548 0 -14.6809
-12.7345 0 8.34794
-13.6142 0 12.2343
2.08006 0 -10.3137
24.1736 0 -11.9746
2.1396 0 -13.7447
-11.904 0 -3.95058
12.9995 0 -14.5699
-18.7172 0 -5.01362
60.1127 0 -82.906
28.9911 0 72.0554
-18.121 0 -18.7917
-26.3268 0 3.09877
14.1939 0 12.8486
-1.19786 0 14.2095
-8.39053 0 0.0770891
-63.7987 0 -3.94665
-7.45326 0 42.4188
-5.42048 0 15.4141
12.8377 0 0.543736
17.7082 0 -14.7101
-30.6493 0 -22.2182
-27.6974 0 86.4611
11.2392 0 8.84376
2.53039 0 0.0153812
16.5825 0 5.79574
-21.003 0 13.5064
-48.5082 0 17.3521
1.20183 0 24.2756
0.098564 0 3.89817
32.543 0 -27.5319