# vtk DataFile Version 3.0
SiWiRVisFile
ASCII
DATASET UNSTRUCTURED_GRID
POINTS 1600 DOUBLE
77.9663 100 74.7541
78.9224 100 75.3051
79.9702 100 75.8064
81.6465 100 75.1653
82.7688 100 75.2213
83.9207 100 75.2484
85.2877 100 75.678
86.5132 100 75.8151
87.7264 100 75.9815
89.2081 100 75.707
90.0562 100 76.3625
91.3309 100 76.7116
91.0867 100 75.2515
91.6092 100 74.299
92.0757 100 72.953
94.3029 100 71.3169
95.2578 100 70.7537
96.2949 100 71.3793
96.4065 100 69.3394
99.112 100 70.6783
103.71 100 61.6279
103.035 100 63.9327
103.796 100 62.953
105.171 100 63.0832
104.834 100 62.0481
107.011 100 61.4791
108.908 100 61.268
109.603 100 59.9671
110.608 100 60.3925
111.536 100 59.868
112.957 100 59.868
113.884 100 60.3925
114.889 100 59.9671
115.584 100 61.268
117.481 100 61.4791
119.658 100 62.0481
119.321 100 63.0832
120.696 100 62.953
121.458 100 63.9327
120.783 100 61.6279
125.38 100 70.6783
128.086 100 69.3394
128.198 100 71.3793
129.235 100 70.7537
130.19 100 71.3169
132.417 100 72.953
132.883 100 74.299
133.406 100 75.2515
133.162 100 76.7116
134.436 100 76.3625
135.284 100 75.707
136.766 100 75.9815
137.979 100 75.8151
139.205 100 75.678
140.572 100 75.2484
141.724 100 75.2213
142.846 100 75.1653
144.522 100 75.8064
145.57 100 75.3051
146.526 100 74.7541
78.0098 100 75.9841
79.0107 100 76.4056
81.0957 100 76.1057
82.2332 100 76.2505
83.4073 100 76.4092
84.48 100 76.5443
85.7625 100 76.721
86.9738 100 76.8583
88.1188 100 77.1074
89.4162 100 77.2549
90.4708 100 77.594
91.5161 100 77.789
92.3447 100 75.9402
92.6423 100 74.8569
93.7959 100 74.739
93.1222 100 73.2776
95.174 100 72.0461
98.1801 100 71.4728
99.229 100 71.8967
101.117 100 70.2556
102.325 100 63.0051
100.663 100 67.5806
103.981 100 67.3749
108.984 100 63.9861
105.956 100 62.2318
107.063 100 62.6909
108.382 100 62.9792
109.599 100 62.2652
110.439 100 61.4744
111.516 100 61.1025
112.976 100 61.1025
114.053 100 61.4744
114.893 100 62.2652
116.111 100 62.9792
117.429 100 62.6909
118.536 100 62.2318
115.508 100 63.9861
120.512 100 67.3749
123.829 100 67.5806
122.167 100 63.0051
123.375 100 70.2556
125.263 100 71.8968
126.312 100 71.4728
129.318 100 72.0461
131.37 100 73.2776
130.696 100 74.739
131.85 100 74.8569
132.148 100 75.9402
132.976 100 77.789
134.022 100 77.594
135.076 100 77.2549
136.374 100 77.1074
137.519 100 76.8583
138.73 100 76.721
140.012 100 76.5443
141.085 100 76.4092
142.259 100 76.2505
143.397 100 76.1057
145.482 100 76.4056
146.483 100 75.9841
78.2184 100 77.1359
79.3012 100 77.5251
80.2954 100 76.8613
81.3617 100 77.089
82.7288 100 77.273
83.791 100 77.5709
85.0502 100 77.5804
86.3467 100 77.7043
87.4455 100 78.0266
88.5422 100 78.2201
89.7972 100 78.7961
90.7195 100 79.253
91.9308 100 79.2306
92.3362 100 77.0597
94.6118 100 75.4828
95.0958 100 74.4247
95.1504 100 73.2706
96.4814 100 72.4264
97.7442 100 72.569
100.193 100 71.2689
102.135 100 70.2984
103.041 100 68.0543
105.034 100 68.8298
105.967 100 67.9532
106.891 100 66.1115
107.929 100 68.8474
108.707 100 67.7659
107.541 100 67.7338
110.278 100 63.0346
111.569 100 62.19
112.924 100 62.19
114.215 100 63.0346
116.952 100 67.7338
115.785 100 67.7659
116.563 100 68.8474
117.601 100 66.1115
118.525 100 67.9532
119.459 100 68.8298
121.452 100 68.0543
122.358 100 70.2984
124.3 100 71.2689
126.748 100 72.569
128.011 100 72.4264
129.342 100 73.2706
129.397 100 74.4247
129.881 100 75.4828
132.156 100 77.0597
132.562 100 79.2306
133.773 100 79.253
134.695 100 78.7961
135.95 100 78.2201
137.047 100 78.0266
138.146 100 77.7043
139.442 100 77.5804
140.701 100 77.5709
141.764 100 77.273
143.131 100 77.089
144.197 100 76.8613
145.191 100 77.5251
146.274 100 77.1359
78.4461 100 78.2377
79.4748 100 78.6167
80.3522 100 77.9229
81.3755 100 78.2292
83.0327 100 78.3491
84.1404 100 78.5355
85.3411 100 78.6852
86.5102 100 78.8735
87.7148 100 79.2448
88.8665 100 79.5025
89.8567 100 79.9473
90.9962 100 80.3291
92.185 100 80.332
93.4898 100 77.1302
93.5299 100 75.7416
95.528 100 76.05
96.0607 100 74.819
96.7526 100 73.8558
97.8794 100 73.7013
99.0423 100 73.0841
100.029 100 72.5839
101.708 100 71.2841
103.525 100 69.6662
104.92 100 70.0147
106.121 100 69.6649
106.814 100 68.5207
108.928 100 69.5617
110.108 100 69.7711
110.156 100 67.1339
111.381 100 63.4704
113.111 100 63.4704
114.337 100 67.1339
114.385 100 69.7712
115.564 100 69.5617
117.678 100 68.5207
118.371 100 69.6649
119.572 100 70.0147
120.968 100 69.6662
122.785 100 71.2841
124.463 100 72.5839
125.45 100 73.0841
126.613 100 73.7013
127.74 100 73.8558
128.432 100 74.819
128.964 100 76.05
130.963 100 75.7416
131.003 100 77.1302
132.307 100 80.332
133.496 100 80.3291
134.636 100 79.9473
135.626 100 79.5025
136.778 100 79.2448
137.982 100 78.8735
139.151 100 78.6852
140.352 100 78.5355
141.46 100 78.3491
143.117 100 78.2292
144.14 100 77.9229
145.018 100 78.6167
146.046 100 78.2377
78.4729 100 79.3602
79.5154 100 79.7744
80.6355 100 79.2088
82.1793 100 79.1464
83.272 100 79.3936
84.5803 100 79.4882
85.7737 100 79.6847
86.7581 100 80.0462
87.7286 100 80.6033
88.9232 100 80.6151
90.0093 100 81.0325
91.6735 100 81.2693
93.1809 100 79.4842
94.2522 100 78.1355
94.3842 100 76.5146
96.4094 100 77.1405
96.6385 100 76.0531
97.2342 100 74.9717
98.257 100 74.7863
99.3681 100 74.2282
101.353 100 72.3465
103.173 100 72.0357
105.453 100 70.9426
106.576 100 70.6296
107.193 100 69.7715
108.076 100 70.3937
109.276 100 70.6362
110.517 100 70.8653
109.542 100 68.3935
111.404 100 66.2709
113.088 100 66.2709
114.95 100 68.3936
113.975 100 70.8653
115.217 100 70.6362
116.416 100 70.3937
117.3 100 69.7715
117.917 100 70.6297
119.039 100 70.9426
121.32 100 72.0357
123.139 100 72.3465
125.124 100 74.2282
126.235 100 74.7863
127.258 100 74.9717
127.854 100 76.0531
128.083 100 77.1405
130.108 100 76.5146
130.24 100 78.1355
131.311 100 79.4842
132.819 100 81.2693
134.483 100 81.0325
135.569 100 80.6151
136.764 100 80.6033
137.734 100 80.0462
138.719 100 79.6847
139.912 100 79.4882
141.22 100 79.3936
142.313 100 79.1464
143.857 100 79.2088
144.977 100 79.7744
146.02 100 79.3602
78.5425 100 80.4751
79.4852 100 81.0784
80.3824 100 80.3823
81.4513 100 80.0627
82.6233 100 80.3118
83.7135 100 80.4501
84.9554 100 80.6875
86.0422 100 80.9322
86.9854 100 81.4584
88.044 100 81.8035
89.1532 100 81.8871
90.8227 100 81.9383
92.7452 100 81.2694
93.9508 100 80.3657
94.7334 100 79.3763
95.2717 100 77.3846
97.2799 100 77.6704
97.5501 100 76.6061
98.4034 100 75.8678
99.4647 100 75.523
100.211 100 73.6261
102.307 100 72.9215
103.957 100 72.9106
105.108 100 72.6737
106.335 100 71.7094
107.392 100 71.2467
108.41 100 71.5225
109.536 100 71.7386
111.675 100 71.0133
111.307 100 70.0033
113.186 100 70.0033
112.818 100 71.0133
114.956 100 71.7386
116.083 100 71.5225
117.1 100 71.2467
118.157 100 71.7094
119.385 100 72.6737
120.535 100 72.9106
122.186 100 72.9215
124.281 100 73.6261
125.028 100 75.523
126.089 100 75.8678
126.942 100 76.6061
127.213 100 77.6704
129.221 100 77.3846
129.759 100 79.3763
130.542 100 80.3657
131.747 100 81.2694
133.67 100 81.9383
135.339 100 81.8871
136.448 100 81.8035
137.507 100 81.4584
138.45 100 80.9322
139.537 100 80.6875
140.779 100 80.4501
141.869 100 80.3118
143.041 100 80.0627
144.11 100 80.3823
145.007 100 81.0784
145.95 100 80.4751
78.576 100 81.7475
79.5671 100 82.3167
80.5179 100 81.601
81.481 100 81.0904
82.6186 100 81.696
83.9168 100 81.6022
85.2414 100 81.778
86.2045 100 82.2741
87.2472 100 82.7354
88.4096 100 82.8318
89.6237 100 82.8674
92.026 100 82.2535
93.0389 100 82.6431
93.9612 100 81.4742
95.1599 100 80.5341
96.2787 100 78.3147
97.9381 100 78.7791
98.437 100 77.5095
99.2304 100 76.6837
100.876 100 74.787
101.534 100 73.9367
102.793 100 73.9802
104.582 100 73.8542
106.236 100 72.812
107.337 100 72.4885
108.885 100 72.7951
109.997 100 72.9456
110.774 100 71.9606
110.577 100 74.307
111.136 100 73.1132
113.357 100 73.1133
113.915 100 74.307
113.719 100 71.9607
114.496 100 72.9456
115.607 100 72.7951
117.155 100 72.4885
118.257 100 72.812
119.91 100 73.8542
121.699 100 73.9802
122.958 100 73.9366
123.617 100 74.787
125.262 100 76.6837
126.055 100 77.5095
126.554 100 78.7791
128.214 100 78.3147
129.332 100 80.5341
130.531 100 81.4742
131.454 100 82.6431
132.466 100 82.2535
134.869 100 82.8674
136.083 100 82.8318
137.245 100 82.7354
138.288 100 82.2741
139.251 100 81.778
140.576 100 81.6022
141.874 100 81.696
143.011 100 81.0904
143.974 100 81.601
144.925 100 82.3167
145.916 100 81.7475
78.5636 100 82.7931
79.5086 100 83.4145
80.5664 100 82.9611
81.5601 100 83.6294
81.5793 100 82.3809
82.9196 100 82.8221
84.291 100 82.5847
85.2501 100 83.2516
86.5151 100 83.7305
87.5955 100 83.7341
88.8128 100 83.9068
89.951 100 83.9267
90.789 100 83.1778
91.8492 100 83.5191
93.2487 100 83.7259
94.2419 100 82.7854
96.4972 100 79.4824
99.1273 100 78.5846
99.8497 100 77.4895
100.431 100 76.4092
101.664 100 75.9455
102.09 100 74.9353
103.732 100 74.5861
105.793 100 74.1187
106.873 100 73.8347
107.966 100 73.3241
107.487 100 74.8068
109.471 100 75.0285
110.55 100 75.4385
111.71 100 74.7446
112.782 100 74.7443
113.942 100 75.4385
115.021 100 75.0285
117.005 100 74.8068
116.526 100 73.3241
117.62 100 73.8347
118.7 100 74.1187
120.76 100 74.5861
122.403 100 74.9353
122.828 100 75.9455
124.061 100 76.4092
124.643 100 77.4895
125.365 100 78.5846
127.995 100 79.4824
130.251 100 82.7854
131.244 100 83.7259
132.643 100 83.5191
133.703 100 83.1778
134.541 100 83.9267
135.68 100 83.9068
136.897 100 83.7341
137.977 100 83.7305
139.242 100 83.2516
140.201 100 82.5847
141.573 100 82.8221
142.913 100 82.3809
142.932 100 83.6294
143.926 100 82.9611
144.984 100 83.4145
145.929 100 82.7931
78.4491 100 83.9162
79.5931 100 84.6778
80.6192 100 84.2208
81.5768 100 84.7713
82.6468 100 83.8771
83.7125 100 83.7842
84.7751 100 84.2716
85.7404 100 84.9297
86.8471 100 84.8089
87.9731 100 84.7896
89.0175 100 85.0681
90.0563 100 85.1816
91.253 100 84.9989
92.4086 100 84.7285
94.3958 100 83.995
95.3671 100 81.6821
96.704 100 80.5968
97.5773 100 79.8402
100.302 100 79.0018
100.952 100 77.8029
102.494 100 76.8578
[...]
POINT_DATA 1600
SCALARS mass double
LOOKUP_TABLE default
1
1
1
1
1
1
1
1
1
1
1
1
1
1
1
1
1
1
1
1
1
1
1
1
1
1
1
1
1
1
1
1
1
1
1
1
1
1
1
1
1
1
1
1
1
1
1
1
1
1
1
1
1
1
1
1
1
1
1
1
1
1
1
1
1
1
1
1
1
1
1
1
1
1
1
1
1
1
1
1
1
1
1
1
1
1
1
1
1
1
1
1
1
1
1
1
1
1
1
1
1
1
1
1
1
1
1
1
1
1
1
1
1
1
1
1
1
1
1
1
1
1
1
1
1
1
1
1
1
1
1
1
1
1
1
1
1
1
1
1
1
1
1
1
1
1
1
1
1
1
1
1
1
1
1
1
1
1
1
1
1
1
1
1
1
1
1
1
1
1
1
1
1
1
1
1
1
1
1
1
1
1
1
1
1
1
1
1
1
1
1
1
1
1
1
1
1
1
1
1
1
1
1
1
1
1
1
1
1
1
1
1
1
1
1
1
1
1
1
1
1
1
1
1
1
1
1
1
1
1
1
1
1
1
1
1
1
1
1
1
1
1
1
1
1
1
1
1
1
1
1
1
1
1
1
1
1
1
1
1
1
1
1
1
1
1
1
1
1
1
1
1
1
1
1
1
1
1
1
1
1
1
1
1
1
1
1
1
1
1
1
1
1
1
1
1
1
1
1
1
1
1
1
1
1
1
1
1
1
1
1
1
1
1
1
1
1
1
1
1
1
1
1
1
1
1
1
1
1
1
1
1
1
1
1
1
1
1
1
1
1
1
1
1
1
1
1
1
1
1
1
1
1
1
1
1
1
1
1
1
1
1
1
1
1
1
1
1
1
1
1
1
1
1
1
1
1
1
1
1
1
1
1
1
1
1
1
1
1
1
1
1
1
1
1
1
1
1
1
1
1
1
1
1
1
1
1
1
1
1
1
1
1
1
1
1
1
1
1
1
1
1
1
1
1
1
1
1
1
1
1
1
1
1
1
1
1
1
1
1
1
1
1
1
1
1
1
1
1
1
1
1
1
1
1
1
1
1
1
1
1
1
1
1
1
1
1
1
1
1
1
1
1
1
1
1
1
1
1
1
1
1
1
1
1
1
1
1
1
1
1
1
1
1
1
1
1
1
1
1
1
1
1
1
1
1
1
1
1
1
1
1
1
1
1
1
1
1
1
1
1
1
1
1
1
1
1
1
1
1
1
1
1
1
1
1
1
1
1
1
1
1
1
1
1
1
1
1
1
1
1
1
1
1
1
1
1
1
1
1
1
1
1
1
1
1
1
1
1
1
1
1
1
1
1
1
1
1
1
1
1
1
1
1
1
1
1
1
1
1
1
1
1
1
1
1
1
1
1
1
1
1
1
1
1
1
1
1
1
1
1
1
1
1
1
1
1
1
1
1
1
1
1
1
1
1
1
1
1
1
1
1
1
1
1
1
1
1
1
1
1
1
1
1
1
1
1
1
1
1
1
1
1
1
1
1
1
1
1
1
1
1
1
1
1
1
1
1
1
1
1
1
1
1
1
1
1
1
1
1
1
1
1
1
1
1
1
1
1
1
1
1
1
1
1
1
1
1
1
1
1
1
1
1
1
1
1
1
1
1
1
1
1
1
1
1
1
1
1
1
1
1
1
1
1
1
1
1
1
1
1
1
1
1
1
1
1
1
1
1
1
1
1
1
1
1
1
1
1
1
1
1
1
1
1
1
1
1
1
1
1
1
1
1
1
1
1
1
1
1
1
1
1
1
1
1
1
1
1
1
1
1
1
1
1
1
1
1
1
1
1
1
1
1
1
1
1
1
1
1
1
1
1
1
1
1
1
1
1
1
1
1
1
1
1
1
1
1
1
1
1
1
1
1
1
1
1
1
1
1
1
1
1
1
1
1
1
1
1
1
1
1
1
1
1
1
1
1
1
1
1
1
1
1
1
1
1
1
1
1
1
1
1
1
1
1
1
1
1
1
1
1
1
1
1
1
1
1
1
1
1
1
1
1
1
1
1
1
1
1
1
1
1
1
1
1
1
1
1
1
1
1
1
1
1
1
1
1
1
1
1
1
1
1
1
1
1
1
1
1
1
1
1
1
1
1
1
1
1
1
1
1
1
1
1
1
1
1
1
1
1
1
1
1
1
1
1
1
1
1
1
1
1
1
1
1
1
1
1
1
1
1
1
1
1
1
1
1
1
1
1
1
1
1
1
1
1
1
1
1
1
1
1
1
1
1
1
1
1
1
1
1
1
1
1
1
1
1
1
1
1
1
1
1
1
1
1
1
1
1
1
1
1
1
1
1
1
1
1
1
1
1
1
1
1
1
1
1
1
1
1
1
1
1
1
1
1
1
1
1
1
1
1
1
1
1
1
1
1
1
1
1
1
1
1
1
1
1
1
1
1
1
1
1
1
1
1
1
1
1
1
1
1
1
1
1
1
1
1
1
1
1
1
1
1
1
1
1
1
1
1
1
1
1
1
1
1
1
1
1
1
1
1
1
1
1
1
1
1
1
1
1
1
1
1
1
1
1
1
1
1
1
1
1
1
1
1
1
1
1
1
1
1
1
1
1
1
1
1
1
1
1
1
1
1
1
1
1
1
1
1
1
1
1
1
1
1
1
1
1
1
1
1
1
1
1
1
1
1
1
1
1
1
1
1
1
1
1
1
1
1
1
1
1
1
1
1
1
1
1
1
1
1
1
1
1
1
1
1
1
1
1
1
1
1
1
1
1
1
1
1
1
1
1
1
1
1
1
1
1
1
1
1
1
1
1
1
1
1
1
1
1
1
1
1
1
1
1
1
1
1
1
1
1
1
1
1
1
1
1
1
1
1
1
1
1
1
1
1
1
1
1
1
1
1
1
1
1
1
1
1
1
1
1
1
1
1
1
1
1
1
1
1
1
1
1
1
1
1
1
1
1
1
1
1
1
1
1
1
1
1
1
1
1
1
1
1
1
1
1
1
1
1
1
1
1
1
1
1
1
1
1
1
1
1
1
1
1
1
1
1
1
1
1
1
1
1
1
1
1
1
1
1
1
1
1
1
1
1
1
1
1
1
1
1
1
1
1
1
1
1
1
1
1
1
1
1
1
1
1
1
1
1
1
1
1
1
1
1
1
1
1
1
1
1
1
1
1
1
1
1
1
1
1
1
1
1
1
1
1
1
1
1
1
1
1
1
1
1
1
1
1
1
1
1
1
1
1
1
1
1
1
1
1
1
1
1
1
1
1
1
1
1
1
1
1
1
1
1
1
1
1
1
1
1
1
1
1
1
1
1
1
1
1
1
1
1
1
1
1
1
1
1
1
1
1
1
1
1
1
1
1
1
1
1
1
1
1
1
1
1
1
1
1
1
1
1
1
1
1
1
1
1
1
1
1
1
1
1
1
1
1
1
1
1
1
1
1
1
1
1
1
1
1
1
1
1
1
1
1
1
1
1
1
1
1
1
1
1
1
1
1
1
1
1
1
1
1
1
1
1
1
1
1
1
1
1
1
1
1
1
1
1
1
1
1
1
1
1
1
1
1
1
1
1
1
1
1
1
1
1
1
1
1
1
1
1
1
1
1
1
1
1
1
1
1
1
1
1
1
1
1
1
1
1
1
1
1
1
1
VECTORS force double
-4.28869 0 9.98803
9.67705 0 4.61928
-2.07998 0 -3.58335
11.1712 0 2.28295
6.30141 0 17.558
-2.15434 0 21.515
0.00374807 0 13.8957
-4.60165 0 13.9793
-7.55009 0 14.6696
-23.2451 0 -7.09248
41.3118 0 17.9601
-40.303 0 -28.5052
-0.147515 0 26.4504
20.379 0 -14.3858
-11.5162 0 5.38257
-0.0684326 0 5.45457
14.4779 0 14.2034
-23.2935 0 -28.9951
-1.11573 0 2.10521
3.4179 0 26.0591
11.0686 0 15.9309
2.55298 0 -16.6255
1.55149 0 -5.9655
0.748412 0 5.76758
-17.0747 0 -10.1888
-7.47773 0 18.8243
13.7175 0 6.45858
-11.1522 0 3.68933
-7.60576 0 14.2695
31.6465 0 0.232389
-31.6463 0 0.232533
7.60558 0 14.2692
11.1523 0 3.68939
-13.7176 0 6.45853
7.47774 0 18.8243
17.0747 0 -10.1888
-0.748406 0 5.76755
-1.55149 0 -5.9655
-2.55298 0 -16.6255
-11.0686 0 15.9309
-3.41785 0 26.059
1.11573 0 2.10521
23.2933 0 -28.9932
-14.4785 0 14.2031
0.0689534 0 5.4549
11.5163 0 5.38255
-20.379 0 -14.3858
0.147474 0 26.4504
40.3029 0 -28.5051
-41.3124 0 17.9605
23.2457 0 -7.09295
7.5501 0 14.6696
4.60166 0 13.9793
-0.00374354 0 13.8957
2.15434 0 21.515
-6.3014 0 17.558
-11.1712 0 2.28295
2.07998 0 -3.58335
-9.67706 0 4.61928
4.2887 0 9.98802
-7.62136 0 -10.1361
41.8707 0 8.66106
-24.4288 0 -74.5536
-3.63498 0 -4.47204
-17.7969 0 -17.2231
29.0913 0 9.23171
8.081 0 -8.02333
26.7684 0 -27.5453
-0.10948 0 1.49773
-27.5743 0 12.3685
-23.8851 0 -12.4744
23.9791 0 29.6465
-2.12174 0 1.42638
5.60059 0 1.81214
10.8309 0 -61.8046
10.2622 0 10.3437
16.4706 0 -4.07191
7.32059 0 4.7835
-30.7151 0 -26.3492
-85.318 0 12.8892
12.3953 0 5.8111
0.236674 0 0.0471575
-4.42768 0 6.47549
-1.09004 0 -11.9354
10.0813 0 2.51471
-1.92088 0 -13.5124
3.33419 0 -0.709772
-54.4975 0 -63.0065
0.400861 0 19.8683
-0.905625 0 -26.9366
0.905693 0 -26.9366
-0.400855 0 19.8683
54.4971 0 -63.0063
-3.33424 0 -0.709837
1.92092 0 -13.5124
-10.0813 0 2.51471
1.08995 0 -11.9353
4.42785 0 6.47562
-0.236671 0 0.0471572
-12.3953 0 5.8111
85.3154 0 12.8886
30.7114 0 -26.3466
-7.31931 0 4.78366
-16.4706 0 -4.07193
-10.2623 0 10.3437
-10.8302 0 -61.8038
-5.60065 0 1.81228
2.12174 0 1.42625
-23.9792 0 29.6464
23.8851 0 -12.4744
27.5743 0 12.3685
0.109481 0 1.49774
-26.7684 0 -27.5453
-8.08102 0 -8.02333
-29.0913 0 9.23171
17.7969 0 -17.2231
3.63499 0 -4.47202
24.4288 0 -74.5538
-41.8707 0 8.66106
7.62136 0 -10.1361
-7.63767 0 7.27439
4.40624 0 -23.5728
-34.7134 0 -16.3769
42.318 0 86.7687
-23.8285 0 1.45715
7.41428 0 -95.5297
-12.4969 0 6.13121
-34.7074 0 41.9427
-16.215 0 3.28345
10.3367 0 4.42336
-70.5497 0 -32.243
74.6877 0 20.0404
-6.64922 0 5.09196
42.4023 0 3.3522
5.19883 0 -49.439
-56.9838 0 -13.4225
5.42628 0 -4.57077
6.55552 0 37.098
1.01331 0 -1.88582
-2.84301 0 4.83471
97.1175 0 -17.6606
7.188 0 -1.32236
13.3263 0 8.14087
-71.8499 0 -35.584
0.655881 0 3.14281
0.869624 0 -0.0686334
-49.0706 0 -19.9136
23.5328 0 -8.29574
57.0449 0 52.0014
-3.17282 0 20.0321
3.1727 0 20.0322
-57.0445 0 52.0013
-23.5487 0 -8.30639
49.0744 0 -19.92
-0.865663 0 -0.0704238
-0.655772 0 3.14248
71.855 0 -35.5842
-13.3262 0 8.13974
-7.18819 0 -1.32243
-97.1188 0 -17.6693
2.84309 0 4.83498
-1.01342 0 -1.88783
-6.55527 0 37.0963
-5.42634 0 -4.57089
56.9877 0 -13.4239
-5.19933 0 -49.4389
-42.4022 0 3.35221
6.64928 0 5.09185
-74.6875 0 20.0404
70.5496 0 -32.2429
-10.3367 0 4.42336
16.215 0 3.28345
34.7074 0 41.9427
12.4969 0 6.13123
-7.41425 0 -95.5297
23.8285 0 1.45713
-42.318 0 86.7688
34.7134 0 -16.3769
-4.40624 0 -23.5728
7.63767 0 7.27438
-8.60586 0 -2.22005
10.7943 0 28.4828
-13.765 0 24.7587
28.7362 0 19.571
-22.9801 0 -5.79467
16.2205 0 30.6987
1.36777 0 -26.2436
16.9682 0 -12.9104
-6.5676 0 -3.5111
-20.6878 0 -23.011
14.0399 0 0.474908
-0.527301 0 10.8906
4.35631 0 -41.0995
-12.5883 0 5.72665
-32.7991 0 62.5294
8.5935 0 18.7804
58.4801 0 30.0546
0.457327 0 10.0009
7.46113 0 4.15605
-8.21089 0 7.53014
37.809 0 -22.5666
-15.6691 0 14.4542
3.56843 0 0.348833
-3.93811 0 -36.4261
-46.8269 0 -33.039
56.3736 0 85.5847
-3.30508 0 -5.26083
-6.70876 0 12.4771
-3.08974 0 6.11425
-5.67657 0 -16.5197
5.6766 0 -16.5197
3.0905 0 6.11489
6.70967 0 12.4717
3.30469 0 -5.25938
-56.3688 0 85.5965
46.8282 0 -33.0172
3.93827 0 -36.4264
-3.56876 0 0.348876
15.6728 0 14.4637
-37.8065 0 -22.5677
8.21052 0 7.53075
-7.46052 0 4.15788
-0.457905 0 10.0007
-58.4839 0 30.0559
-8.59277 0 18.7799
32.7987 0 62.5284
12.5881 0 5.72637
-4.35625 0 -41.0996
0.527151 0 10.8908
-14.0398 0 0.474446
20.6877 0 -23.011
6.56761 0 -3.51109
-16.9682 0 -12.9104
-1.36776 0 -26.2436
-16.2206 0 30.6988
22.9801 0 -5.79466
-28.7362 0 19.571
13.7651 0 24.7587
-10.7943 0 28.4828
8.60586 0 -2.22005
11.339 0 -9.04448
-25.1299 0 -15.616
-7.25238 0 -1.45461
-7.17911 0 2.8524
26.4992 0 20.4217
10.4088 0 62.4227
-57.3931 0 22.1174
43.9958 0 6.30308
13.9248 0 3.32483
-0.665367 0 16.6585
4.79048 0 16.8687
-45.1066 0 -37.6242
-8.49877 0 11.3689
5.56581 0 -8.49283
18.5251 0 27.5411
-74.3501 0 -39.689
-15.829 0 -34.8267
-64.3657 0 8.51402
64.4796 0 -29.1327
-60.0289 0 39.08
-15.5167 0 3.14242
-6.1937 0 14.7781
31.2602 0 20.7178
-71.5701 0 3.91525
31.5475 0 -49.1966
37.5629 0 2.51042
-0.573544 0 1.80511
-9.32194 0 -7.16656
35.4707 0 37.3812
-1.6019 0 3.0765
1.60171 0 3.07626
-35.473 0 37.3844
9.31673 0 -7.16691
0.574785 0 1.81148
-37.5825 0 2.48431
-31.5577 0 -49.1947
71.6232 0 3.85116
-31.2734 0 20.7221
6.19366 0 14.7782
15.5182 0 3.14144
60.0307 0 39.0808
-64.477 0 -29.1349
64.3634 0 8.51329
15.8304 0 -34.8263
74.3569 0 -39.6935
-18.5248 0 27.5414
-5.56577 0 -8.49273
8.49861 0 11.3688
45.1066 0 -37.6249
-4.79047 0 16.8689
0.665373 0 16.6585
-13.9248 0 3.32482
-43.9959 0 6.30312
57.3931 0 22.1174
-10.4088 0 62.4227
-26.4992 0 20.4217
7.17908 0 2.8524
7.25238 0 -1.4546
25.1299 0 -15.616
-11.339 0 -9.04448
11.2357 0 6.23699
10.6002 0 3.83998
33.9872 0 28.2129
8.80017 0 -80.6207
-29.1573 0 -1.21705
25.3805 0 -0.220586
-15.5732 0 -16.2888
-15.7376 0 -8.23384
13.6933 0 11.425
-11.999 0 -16.7555
-1.85593 0 -22.7129
-15.1556 0 16.6942
39.5988 0 24.5239
6.8855 0 -14.8092
-8.0224 0 10.6134
-2.04805 0 -7.38689
73.1173 0 64.3428
26.4942 0 14.8695
-2.01401 0 18.3502
3.67922 0 -0.218848
57.8707 0 4.68324
9.01524 0 9.11714
-1.69855 0 -1.10942
-4.49697 0 11.6653
5.86936 0 0.846862
9.77093 0 53.1977
44.934 0 7.02458
10.9011 0 10.7654
-3.0612 0 26.2878
-23.3157 0 -14.1317
23.3198 0 -14.1275
3.06088 0 26.2883
-10.905 0 10.7644
-44.9287 0 7.02524
-9.79689 0 53.2467
-5.85849 0 0.872844
4.49827 0 11.6661
1.70169 0 -1.11363
-9.01548 0 9.11607
-57.8727 0 4.68099
-3.68005 0 -0.219011
2.014 0 18.3536
-26.4956 0 14.8698
-73.1222 0 64.3469
2.047 0 -7.38707
8.02252 0 10.6133
-6.88559 0 -14.8092
-39.5986 0 24.524
15.1556 0 16.6943
1.85596 0 -22.713
11.9991 0 -16.7556
-13.6933 0 11.425
15.7375 0 -8.23379
15.5732 0 -16.2888
-25.3805 0 -0.220588
29.1573 0 -1.21703
-8.80017 0 -80.6209
-33.9872 0 28.2129
-10.6002 0 3.84
-11.2357 0 6.23699
8.25503 0 -56.0983
16.9687 0 -24.4031
-18.7103 0 11.5441
21.2283 0 67.6428
-4.95223 0 -1.82803
-13.6153 0 -47.9476
-26.1548 0 -3.39896
13.7234 0 10.1298
-8.11771 0 -43.5708
8.09358 0 16.7849
0.68827 0 14.5547
-7.4226 0 39.6641
20.842 0 -8.62195
-2.96049 0 14.5355
-10.4715 0 -1.72616
6.69103 0 -10.2286
10.535 0 -11.4032
-2.99605 0 4.00557
-51.9782 0 -82.3512
-8.47894 0 18.5752
24.0943 0 -26.6546
-17.1713 0 1.23853
14.3861 0 -4.60571
5.71838 0 20.2982
-35.7854 0 -51.9528
27.3982 0 -36.4342
11.1153 0 -13.6802
-9.43789 0 8.11588
4.56571 0 -1.64249
-13.6121 0 -0.591175
13.611 0 -0.591418
-4.56196 0 -1.64202
9.44003 0 8.11527
-11.1048 0 -13.6804
-27.4201 0 -36.4426
35.7803 0 -51.9501
-5.71668 0 20.2897
-14.3871 0 -4.60123
17.1671 0 1.24202
-24.0941 0 -26.6541
8.47864 0 18.5745
51.9756 0 -82.3495
2.99566 0 4.00568
-10.5384 0 -11.41
-6.69155 0 -10.2283
10.4716 0 -1.72635
2.96051 0 14.5357
-20.8417 0 -8.62205
7.4221 0 39.665
-0.688367 0 14.5549
-8.09355 0 16.7849
8.11772 0 -43.5711
-13.7233 0 10.1297
26.1548 0 -3.39894
13.6153 0 -47.9477
4.95223 0 -1.82803
-21.2283 0 67.643
18.7103 0 11.5441
-16.9686 0 -24.4031
-8.25505 0 -56.0982
-0.250359 0 50.5606
3.96026 0 25.2633
1.39973 0 1.64351
-5.51084 0 -17.1872
-0.0345397 0 -4.30235
8.39525 0 -16.1182
18.0499 0 46.1738
6.20357 0 -11.0664
-24.0405 0 -10.3015
43.0586 0 33.4785
-9.38812 0 2.59505
-3.87617 0 21.3838
-10.0115 0 -17.4465
17.6914 0 -1.40035
3.42913 0 11.3537
-6.14526 0 8.41068
2.38654 0 -6.84319
-3.05849 0 -1.7203
51.6041 0 73.1118
-12.2971 0 4.62115
-5.05304 0 13.5837
4.83075 0 -19.6804
-6.86824 0 -30.6596
-12.2726 0 -7.61873
10.2218 0 -16.3582
-12.9885 0 59.4945
1.63375 0 -0.00122684
11.4508 0 2.91692
-3.46455 0 -74.927
-39.923 0 -8.05763
39.9401 0 -8.12739
3.4413 0 -74.9604
-11.4404 0 2.89066
-1.63605 0 0.00488724
13.0007 0 59.4985
-10.2068 0 -16.3618
12.2635 0 -7.62361
6.86515 0 -30.6632
-4.82888 0 -19.6761
5.05127 0 13.5795
12.2973 0 4.62095
-51.6057 0 73.1105
3.05929 0 -1.72068
-2.38685 0 -6.84274
6.14544 0 8.41063
-3.42899 0 11.3537
-17.6908 0 -1.40071
10.0109 0 -17.4462
3.87609 0 21.3837
9.38807 0 2.59511
-43.0589 0 33.4788
24.0407 0 -10.3015
-6.20348 0 -11.0662
-18.0499 0 46.1738
-8.39526 0 -16.1182
0.0345373 0 -4.30236
5.51085 0 -17.1872
-1.39971 0 1.64352
-3.96028 0 25.2633
0.250362 0 50.5604
17.4429 0 -7.65094
-53.1371 0 -40.3787
-16.4918 0 -11.9609
9.12614 0 1.53929
-32.8317 0 22.0743
32.8647 0 -12.9563
-5.90109 0 6.43919
-6.25079 0 0.699714
10.4599 0 2.74401
-11.6745 0 -5.05237
-28.6147 0 1.90914
41.857 0 -18.5087
-22.5964 0 -23.7427
-4.17948 0 4.72497
-19.1586 0 -11.6276
-1.1944 0 -5.33238
3.33274 0 -9.93617
10.2785 0 12.0314
-71.1845 0 8.18308
-16.5647 0 -43.3683
-85.7898 0 -73.3014
-6.32989 0 20.7106
9.69727 0 23.1196
-8.15481 0 -2.17936
-9.33684 0 16.0277
7.47479 0 8.46337
-0.430833 0 -10.6803
3.73012 0 -4.47541
-17.8323 0 51.6502
-152.226 0 12.9778
152.23 0 12.973
17.8769 0 51.6589
-3.71902 0 -4.46513
0.428555 0 -10.6688
-7.47105 0 8.46001
9.33124 0 16.0273
8.15428 0 -2.17885
-9.68855 0 23.1229
6.32824 0 20.7113
85.7903 0 -73.2987
16.5789 0 -43.393
71.1769 0 8.17698
-10.2763 0 12.0391
-3.33259 0 -9.93687
1.19394 0 -5.33219
19.158 0 -11.6276
4.17951 0 4.72505
22.597 0 -23.7433
-41.8565 0 -18.5084
28.6136 0 1.90931
11.6751 0 -5.05256
-10.4599 0 2.744
6.25084 0 0.699755
5.901 0 6.43897
-32.8648 0 -12.9564
32.8317 0 22.0744
-9.12613 0 1.53927
16.4918 0 -11.9608
53.137 0 -40.3787
-17.4429 0 -7.65089
15.2557 0 10.9538
14.13 0 -6.56351
-1.90557 0 17.6258
43.7741 0 34.8276
-13.9906 0 -11.7949
-1.41778 0 4.10233
20.7417 0 -3.88871
0.898209 0 -20.0435
21.2851 0 31.7619
16.4114 0 -18.006
-0.417886 0 -28.4764
16.8372 0 -37.0724
8.94763 0 12.5179
7.62391 0 19.7661
-14.5001 0 -0.307035
-4.97271 0 8.34541
10.8421 0 -45.0983
-7.953 0 9.53507
-67.1614 0 -104.936
86.641 0 105.335
99.2037 0 36.8669
-7.91368 0 -20.6175
11.8934 0 -34.8989
-16.8623 0 -11.1648
12.7044 0 18.0076
-39.7363 0 -41.7906
-3.8909 0 14.1621
1.65518 0 13.4019
-49.8394 0 -22.4846
41.252 0 19.9716
-41.3249 0 19.9267
50.1288 0 -22.7103
-1.66445 0 13.3807
3.9037 0 14.1774
39.7406 0 -41.7996
-12.692 0 18.0127
16.8629 0 -11.1586
-11.8906 0 -34.8932
7.91373 0 -20.6212
-99.2035 0 36.893
-86.6901 0 105.358
67.1753 0 -104.966
7.95325 0 9.53513
-10.8422 0 -45.0995
4.9729 0 8.34568
14.5002 0 -0.307046
-7.62435 0 19.7667
-8.94718 0 12.5172
-16.8374 0 -37.0725
0.417828 0 -28.4763
-16.4115 0 -18.0062
-21.2857 0 31.7619
-0.898393 0 -20.044
-20.7417 0 -3.88881
1.4178 0 4.10229
13.9904 0 -11.7945
-43.7743 0 34.8278
1.90583 0 17.6256
-14.13 0 -6.56351
-15.2557 0 10.9537
10.0741 0 -32.361
11.4052 0 2.54697
-3.97615 0 -31.7453
-5.50599 0 -2.81609
-59.1972 0 -16.39
46.0764 0 -29.619
-6.5621 0 0.609868
-39.9881 0 -26.9657
20.8634 0 39.321
-14.2197 0 12.5046
-14.5846 0 48.6036
-12.1055 0 -30.3067
-9.25594 0 13.023
6.80515 0 -22.9552
1.81983 0 -32.6777
-0.790489 0 -6.86588
-24.0395 0 -30.0725
-42.2293 0 -20.6919
-4.45192 0 2.82061
-51.9639 0 -2.59761
44.7196 0 -69.0896
-14.9189 0 21.8398
-26.0604 0 -19.0683
23.2318 0 61.2128
62.8912 0 32.5347
12.6623 0 -6.90241
52.4813 0 31.6459
-3.64768 0 1.22157
-3.597 0 -0.424913
47.9957 0 25.2257
-48.3094 0 25.3877
3.60593 0 -0.325656
3.6619 0 1.18415
-52.5015 0 31.6507
-12.6373 0 -6.88932
-62.8572 0 32.5146
-23.2703 0 61.2205
26.0683 0 -19.0666
14.9141 0 21.8407
-44.7188 0 -69.0904
51.9977 0 -2.59012
4.4513 0 2.82086
42.2481 0 -20.7043
24.0411 0 -30.0737
0.78987 0 -6.86466
-1.82079 0 -32.6774
-6.80444 0 -22.9552
9.25505 0 13.0232
12.1055 0 -30.3066
14.5848 0 48.6037
14.2196 0 12.5045
-20.8634 0 39.3207
39.9888 0 -26.9647
6.56207 0 0.610207
-46.0762 0 -29.6198
59.1968 0 -16.39
5.50591 0 -2.81609
3.97612 0 -31.7452
-11.4052 0 2.54692
-10.0741 0 -32.3611
11.2186 0 16.8187
-25.2874 0 -3.67718
-14.4561 0 -36.0792
17.1168 0 26.3698
-0.665757 0 -3.6028
-3.91323 0 15.5201
21.7412 0 33.5375
-4.62006 0 -2.99962
-21.8365 0 -89.6408
-1.41266 0 -4.9653
5.53749 0 -0.621829
-19.1982 0 -26.9909
-9.63377 0 -4.84416
2.45604 0 -7.31757
-10.2794 0 83.6038
23.3496 0 -37.954
13.4491 0 2.67487
36.4492 0 74.8303
11.3223 0 5.64385
5.91092 0 -11.6402
-15.2409 0 60.0263
-19.9901 0 -10.2784
2.7029 0 -8.06148
15.9415 0 20.2698
29.2492 0 12.8994
-26.1699 0 -13.5459
48.8573 0 9.38569
-12.4593 0 14.6659
25.7542 0 -22.3596
13.173 0 -12.4692
-13.1812 0 -12.4849
-25.7461 0 -22.3638
12.4534 0 14.6535
-48.8668 0 9.38803
26.1435 0 -13.589
-29.2638 0 12.9356
-15.9288 0 20.2299
-2.70204 0 -8.0676
19.989 0 -10.2823
15.245 0 60.0232
-5.91 0 -11.6402
-11.3213 0 5.64244
-36.4498 0 74.8321
-13.4485 0 2.67397
-23.3469 0 -37.9531
10.2784 0 83.6042
-2.45608 0 -7.31745
9.63387 0 -4.84448
19.1978 0 -26.9904
-5.5375 0 -0.621888
1.41273 0 -4.96534
21.8367 0 -89.6413
4.6202 0 -2.99987
-21.7413 0 33.5379
3.91374 0 15.5202
0.665747 0 -3.60275
-17.1168 0 26.3696
14.4562 0 -36.0791
25.2874 0 -3.67715
-11.2186 0 16.8187
21.8271 0 32.6246
5.56342 0 -7.74388
37.2533 0 -118.399
18.8947 0 7.49168
-16.378 0 -16.4168
11.984 0 4.97984
9.8169 0 -4.03805
-4.65693 0 17.8682
-6.32742 0 -10.8409
-0.721988 0 -7.31982
-26.8283 0 -55.0041
-18.5861 0 2.10624
-0.56554 0 -33.8527
3.81066 0 21.5566
-13.7448 0 -4.24547
-25.4349 0 -67.8869
1.19826 0 -6.0726
4.18177 0 11.5281
4.05286 0 -17.7373
-17.9948 0 27.2048
-17.9517 0 -55.7834
-31.962 0 -34.3012
3.97477 0 15.9539
-32.7962 0 7.56046
-53.6145 0 21.0848
-13.0094 0 3.16789
13.7792 0 -5.96756
-0.595441 0 -8.2345
-11.801 0 -0.153867
-4.10427 0 12.6194
4.11087 0 12.6662
11.8089 0 -0.148807
0.594215 0 -8.22933
-13.7857 0 -5.96963
13.0136 0 3.17372
53.6316 0 21.105
32.768 0 7.57614
-3.94985 0 15.9692
31.9507 0 -34.2974
17.956 0 -55.7826
17.9824 0 27.2188
-4.05082 0 -17.7391
-4.18172 0 11.5277
-1.19824 0 -6.07229
25.4338 0 -67.8868
13.7445 0 -4.24589
-3.81002 0 21.5561
0.566235 0 -33.8537
18.5858 0 2.10616
26.8284 0 -55.0042
0.722012 0 -7.31983
6.3276 0 -10.8407
4.65706 0 17.8682
-9.81688 0 -4.03812
-11.984 0 4.97987
16.378 0 -16.4167
-18.8947 0 7.49168
-37.2534 0 -118.399
-5.56343 0 -7.74388
-21.8271 0 32.6247
-3.98142 0 52.7367
16.3827 0 -57.3147
-28.2887 0 165.276
-24.6211 0 -1.37378
-33.372 0 -1.96797
48.4121 0 27.5799
-32.1936 0 4.99971
10.7594 0 1.06621
27.1501 0 59.051
6.7241 0 8.4093
4.13772 0 24.9898
-5.70178 0 -30.3807
41.2892 0 64.7693
3.56175 0 23.4047
-44.5489 0 89.5131
52.2417 0 14.9923
-71.0656 0 3.98692
-1.52477 0 -9.7114
6.29975 0 8.74313
-19.9432 0 0.877753
4.95571 0 1.45778
61.4803 0 -24.5571
-10.4441 0 24.3956
-0.229855 0 8.11732
32.5079 0 -1.56203
-3.35904 0 1.44682
-8.46939 0 2.79641
-48.48 0 11.922
2.49155 0 1.70917
-3.09525 0 1.39047
3.08916 0 1.3938
-2.49676 0 1.70704
48.4058 0 11.9124
8.47131 0 2.79936
3.35363 0 1.45282
-32.4811 0 -1.55761
0.233712 0 8.1109
10.4276 0 24.3906
-61.4644 0 -24.5231
-4.95944 0 1.4549
19.9425 0 0.877326
-6.29922 0 8.74317
1.52335 0 -9.71062
71.0688 0 3.99157
-52.2425 0 14.9918
44.5502 0 89.5117
-3.56217 0 23.4056
-41.2893 0 64.7694
5.70077 0 -30.3798
-4.13766 0 24.9903
-6.72407 0 8.40932
-27.1505 0 59.0516
-10.7595 0 1.06602
32.1937 0 4.99934
-48.4121 0 27.5799
33.372 0 -1.96799
24.6212 0 -1.37379
28.2886 0 165.277
-16.3825 0 -57.3149
3.98142 0 52.7367
20.5093 0 2.97053
-53.6138 0 10.1411
-10.539 0 12.7549
59.4205 0 -25.2616
-37.6168 0 -5.27772
43.4612 0 23.8802
-3.35691 0 -4.17655
-2.50161 0 23.782
-5.87857 0 -7.78314
18.4516 0 6.12499
-120.883 0 3.70488
123.263 0 12.6033
-129.95 0 40.5996
148.15 0 -41.1335
-19.0481 0 20.1488
-26.1643 0 -31.1441
5.65232 0 5.61312
6.57784 0 0.30552
6.93471 0 4.74987
-6.11018 0 -2.79672
-19.1621 0 59.5989
3.25031 0 -1.3817
-13.5356 0 4.19773
60.8221 0 -1.29721
-5.8771 0 -4.32602
4.81414 0 -22.1118
-8.64711 0 -6.681
53.8751 0 2.23307
-14.0845 0 -3.40707
6.3405 0 -6.81614
-6.3342 0 -6.83225
14.083 0 -3.4033
-53.8021 0 2.24289
8.64585 0 -6.68452
-4.81505 0 -22.1004
5.87582 0 -4.3271
-60.8297 0 -1.30542
13.5352 0 4.20428
-3.25038 0 -1.38409
19.1376 0 59.5705
6.10966 0 -2.79775
-6.9334 0 4.74969
-6.5793 0 0.304957
-5.65348 0 5.6126
26.1664 0 -31.1461
19.0459 0 20.1494