# vtk DataFile Version 4.0
SiwiRVisFile
ASCII
DATASET STRUCTURED_POINTS
DIMENSIONS 50 50 1
ORIGIN 0 0 0
SPACING 1 1 1
POINT_DATA 2500

SCALARS flags double 1
LOOKUP_TABLE default
1
1
1
1
1
1
1
1
1
1
1
1
1
1
1
1
1
1
1
1
1
1
1
1
1
1
1
1
1
1
1
1
1
1
1
1
1
1
1
1
1
1
1
1
1
1
1
1
1
1
1
1
1
1
1
1
1
1
1
1
1
1
1
1
1
1
1
1
1
1
1
1
1
1
1
1
1
1
1
1
1
1
1
1
1
1
1
1
1
1
1
1
1
1
1
1
1
1
1
1
1
1
1
1
1
1
1
1
1
1
1
1
1
1
1
1
1
1
1
1
1
1
1
1
1
1
1
1
1
1
1
1
1
1
1
1
1
1
1
1
1
1
1
1
1
1
1
1
1
1
1
1
1
1
1
1
1
1
1
1
1
1
1
1
1
1
1
1
1
1
1
1
1
1
1
1
1
1
1
1
1
1
1
1
1
1
1
1
1
1
1
1
1
1
1
1
1
1
1
1
1
1
1
1
1
1
1
1
1
1
1
1
1
1
1
1
1
1
1
1
1
1
1
1
1
1
1
1
1
1
1
1
1
1
1
1
1
1
1
1
1
1
1
1
1
1
1
1
1
1
1
1
1
1
1
1
1
1
1
1
1
1
1
1
1
1
1
1
1
1
1
1
1
1
1
1
1
1
1
1
1
1
1
1
1
1
1
1
1
1
1
1
1
1
1
1
1
1
1
1
1
1
1
1
1
1
1
1
1
1
1
1
1
1
1
1
1
1
1
1
1
1
1
1
1
1
1
1
1
1
1
1
1
1
1
1
1
1
1
1
1
1
1
1
1
1
1
1
1
1
1
1
1
1
1
1
1
1
1
1
1
1
1
1
1
1
1
1
1
1
1
1
1
1
1
1
1
1
1
1
1
1
1
1
1
1
1
1
1
1
1
1
1
1
1
1
1
1
1
1
1
1
1
1
1
1
1
1
1
1
1
1
1
1
1
1
1
1
1
1
1
1
1
1
1
1
1
1
1
1
1
1
1
1
1
1
1
1
1
1
1
1
1
1
1
1
1
1
1
1
1
1
1
1
1
1
1
1
1
1
1
1
1
1
1
1
1
1
1
1
1
1
1
1
1
1
1
1
1
1
1
1
1
1
1
1
1
1
1
1
1
1
1
1
1
1
1
1
1
1
1
1
1
1
1
1
1
1
1
1
1
1
1
1
1
1
1
1
1
1
1
1
1
1
1
1
1
1
1
1
1
1
1
1
1
1
1
1
1
1
1
1
1
1
1
1
1
1
1
1
1
1
1
1
1
1
1
1
1
1
1
1
1
1
1
1
1
1
1
1
1
1
1
1
1
1
1
1
1
1
1
1
1
1
1
1
1
1
1
1
1
1
1
1
1
1
1
1
1
1
1
1
1
1
1
1
1
1
1
1
1
1
1
1
1
1
1
1
1
1
1
1
1
1
1
1
1
1
1
1
1
1
1
1
1
1
1
1
1
1
1
1
1
1
1
1
1
1
1
1
1
1
1
1
1
1
1
1
1
1
1
1
1
1
1
1
1
1
1
1
1
1
1
1
1
1
1
1
1
1
1
1
1
1
1
1
1
1
1
1
1
1
1
1
1
1
1
1
1
1
1
1
1
1
1
1
1
1
1
1
1
1
1
1
1
1
1
1
1
1
1
1
1
1
1
1
1
1
1
1
1
1
1
1
1
1
1
1
1
1
1
1
1
1
1
1
1
1
1
1
1
1
1
1
1
1
1
1
1
1
1
1
1
1
1
1
1
1
1
1
1
1
1
1
1
1
1
1
1
1
1
1
1
1
1
1
1
1
1
1
1
1
1
1
1
1
1
1
1
1
1
1
1
1
1
1
1
1
1
1
1
1
1
1
1
1
1
1
1
1
1
1
1
1
1
1
1
1
1
1
1
1
1
1
1
1
1
1
1
1
1
1
1
1
1
1
1
1
1
1
1
1
1
1
1
1
1
1
1
1
1
1
1
1
1
1
1
1
1
1
1
1
1
1
1
1
1
1
1
1
1
1
1
1
1
1
1
1
1
1
1
1
1
1
1
1
1
1
1
1
1
1
1
1
1
1
1
1
1
1
1
1
1
1
1
1
1
1
1
1
1
1
1
1
1
1
1
1
1
1
1
1
1
1
1
1
1
1
1
1
1
1
1
1
1
1
1
1
1
1
1
1
1
1
1
1
1
1
1
1
1
1
1
1
1
1
1
1
1
1
1
1
1
1
1
1
1
1
1
1
1
1
1
1
1
1
1
1
1
1
1
1
1
1
1
1
1
1
1
1
1
1
1
1
1
1
1
1
1
1
1
1
1
1
1
1
1
1
1
1
1
1
1
1
1
1
1
1
1
1
1
1
1
1
1
1
1
1
1
1
1
1
1
1
1
1
1
1
1
1
1
1
1
1
1
1
1
1
1
1
1
1
1
1
1
1
1
1
1
1
1
1
1
1
1
1
1
1
1
1
1
1
1
1
1
1
1
1
1
1
1
1
1
1
1
1
1
1
1
1
1
1
1
1
1
1
1
1
1
1
1
1
1
1
1
1
1
1
1
1
1
1
1
1
1
1
1
1
1
1
1
1
1
1
1
1
1
1
1
1
1
1
1
1
1
1
1
1
1
1
1
1
1
1
1
1
1
1
1
1
1
1
1
1
1
1
1
1
1
1
1
1
1
1
1
1
1
1
1
1
1
1
1
1
1
1
1
1
1
1
1
1
1
1
1
1
1
1
1
1
1
1
1
1
1
1
1
1
1
1
1
1
1
1
1
1
1
1
1
1
1
1
1
1
1
1
1
1
1
1
1
1
1
1
1
1
1
1
1
1
1
1
1
1
1
1
1
1
1
1
1
1
1
1
1
1
1
1
1
1
1
1
1
1
1
1
1
1
1
1
1
1
1
1
1
1
1
1
1
1
1
1
1
1
1
1
1
1
1
1
1
1
1
1
1
1
1
1
1
1
1
1
1
1
1
1
1
1
1
1
1
1
1
1
1
1
1
1
1
1
1
1
1
1
1
1
1
1
1
1
1
1
1
1
1
1
1
1
1
1
1
1
1
1
1
1
1
1
1
1
1
1
1
1
1
1
1
1
1
1
1
1
1
1
1
1
1
1
1
1
1
1
1
1
1
1
1
1
1
1
1
1
1
1
1
1
1
1
1
1
1
1
1
1
1
1
1
1
1
1
1
1
1
1
1
1
1
1
1
1
1
1
1
1
1
1
1
1
1
1
1
1
1
1
1
1
1
1
1
1
1
1
1
1
1
1
1
1
1
1
1
1
1
1
1
1
1
1
1
1
1
1
1
1
1
1
1
1
1
1
1
1
1
1
1
1
1
1
1
1
1
1
1
1
1
1
1
1
1
1
1
1
1
1
1
1
1
1
1
1
1
1
1
1
1
1
1
1
1
1
1
1
1
1
1
1
1
1
1
1
1
1
1
1
1
1
1
1
1
1
1
1
1
1
1
1
1
1
1
1
1
1
1
1
1
1
1
1
1
1
1
1
1
1
1
1
1
1
1
1
1
1
1
1
1
1
1
1
1
1
1
1
1
1
1
1
1
1
1
1
1
1
1
1
1
1
1
1
1
1
1
1
1
1
1
1
1
1
1
1
1
1
1
1
1
1
1
1
1
1
1
1
1
1
1
1
1
1
1
1
1
1
1
1
1
1
1
1
1
1
1
1
1
1
1
1
1
1
1
1
1
1
1
1
1
1
1
1
1
1
1
1
1
1
1
1
1
1
1
1
1
1
1
1
1
1
1
1
1
1
1
1
1
1
1
1
1
1
1
1
1
1
1
1
1
1
1
1
1
1
1
1
1
1
1
1
1
1
1
1
1
1
1
1
1
1
1
1
1
1
1
1
1
1
1
1
1
1
1
1
1
1
1
1
1
1
1
1
1
1
1
1
1
1
1
1
1
1
1
1
1
1
1
1
1
1
1
1
1
1
1
1
1
1
1
1
1
1
1
1
1
1
1
1
1
1
1
1
1
1
1
1
1
1
1
1
1
1
1
1
1
1
1
1
1
1
1
1
1
1
1
1
1
1
1
1
1
1
1
1
1
1
1
1
1
1
1
1
1
1
1
1
1
1
1
1
1
1
1
1
1
1
1
1
1
1
1
1
1
1
1
1
1
1
1
1
1
1
1
1
1
1
1
1
1
1
1
1
1
1
1
1
1
1
1
1
1
1
1
1
1
1
1
1
1
1
1
1
1
1
1
1
1
1
1
1
1
1
1
1
1
1
1
1
1
1
1
1
1
1
1
1
1
1
1
1
1
1
1
1
1
1
1
1
1
1
1
1
1
1
1
1
1
1
1
1
1
1
1
1
1
1
1
1
1
1
1
1
1
1
1
1
1
1
1
1
1
1
1
1
1
1
1
1
1
1
1
1
1
1
1
1
1
1
1
1
1
1
1
1
1
1
1
1
1
1
1
1
1
1
1
1
1
1
1
1
1
1
1
1
1
1
1
1
1
1
1
1
1
1
1
1
1
1
1
1
1
1
1
1
1
1
1
1
1
1
1
1
1
1
1
1
1
1
1
1
1
1
1
1
1
1
1
1
1
1
1
1
1
1
1
1
1
1
1
1
1
1
1
1
1
1
1
1
1
1
1
1
1
1
1
1
1
1
1
1
1
1
1
1
1
1
1
1
1
1
1
1
1
1
1
1
1
1
1
1
1
1
1
1
1
1
1
1
1
1
1
1
1
1
1
1
1
1
1
1
1
1
1
1
1
1
1
1
1
1
1
1
1
1
1
1
1
1
1
1
1
1
1
1
1
1
1
1
1
1
1
1
1
1
1
1
1
1
1
1
1
1
1
1
1
1
1
1
1
1
1
1
1
1
1
1
1
1
1
1
1
1
1
1
1
1
1
1
1
1
1
1
1
1
1
1
1
1
1
1
1
1
1
1
1
1
1
1
1
1
1
1
1
1
1
1
1
1
1
1
1
1
1
1
1
1
1
1
1
1
1
1
1
1
1
1
1
1
1
1
1
1
1
1
1
1
1
1
1
1
1
1
1
1
1
1
1
1
1
1
1
1
1
1
1
1
1
1
1
1
1
1
1
1
1
1
1
1
1
1
1
1
1
1
1
1
1
1
1
1
1
1
1
1
1
1
1
1
1
1
1
1
1
1
1
1
1
1
1
1
1
1
1
1
1
1
1
1
1
1
1
1
1
1
1
1
1
1
1
1
1
1
1
1
1
1
1
1
1
1
1
1
1
1
1
1
1
1
1
1
1
1
1
1
1
1
1
1
1
1
1
1
1
1
1
1
1
1
1
1
1
1
1
1
1
1
1
1
1
1
1
1
1
1
1
1
1
1
1
1
1
1
1
1
1
1
1
1
1
1
1
1
1
1
1
1
1
1
1
1
1
1
1
1
1
1
1
1
1
1
1
1
1
1
1
1
1
1
1
1
1
1
1
1
1
1
1
1
1
1
1
1
1
1
1
1
1
1
1
1
1
1
1
1
1
1
1
1
1
1
1
1
1
1
1
1
1
1
1
1
1
1
1
1
1
1
1
1
1
1
1
1
1
1
1
1
1
1
1
1
1
1
1
1
1
1
1
1
1
1
1
1
1
1
1
1
1
1
1
1
1
1
1
1
1
1
1
1
1
1
1
1
1
1
1
1
1
1
1
1
1
1
1
1

SCALARS density double 1
LOOKUP_TABLE default
1
1
1
1
1
1
1
1
1
1
1
1
1
1
1
1
1
1
1
1
1
1
1
1
1
1
1
1
1
1
1
1
1
1
1
1
1
1
1
1
1
1
1
1
1
1
1
1
1
1
1
1
1
1
1
1
1
1
1
1
1
1
1
1
1
1
1
1
1
1
1
1
1
1
1
1
1
1
1
1
1
1
1
1
1
1
1
1
1
1
1
1
1
1
1
1
1
1
1
1
1
0.999999
1
1
1
1
1
1
1
1
1
1
1
1
1
1
1
1
1
1
1
1
1
1
1
1
1
1
1
1
1
1
1
1
1
1
1
1
1
1
1
1
1
1
1
1
1
1
1
1
1
1
1
1
1
1
1
1
1
1
1
1
1
1
1
1
1
1
1
1
1
1
1
1
1
1
1
1
1
1
1
1
1
1
1
1
1
1
1
1
1
1
1
1
1
1
1
1
1
1
0.999999
1
0.999999
1
1
1
1
1
1
1
1
0.999999
1
1
1
1
1
1
1
1
1
1
1
1
1
0.999999
0.999999
1
0.999999
0.999998
0.999999
0.999999
0.999999
0.999999
1
1
1
1
1
1
1
1
1
1
1
1
1
1
1
1
1
1
1
1
1
1
1
1
1
1
1
1
1
1
1
1
1
0.999999
0.999999
1
1
0.999998
1
1
0.999999
1
1
0.999999
1
1
0.999999
1
1
0.999999
1
1
1
1
1
1
1
1
1
1
1
1
1
1
0.999997
1
1
0.999998
1
1
1
1
1
1
1
1
1
1
1
0.999999
1
1
0.999998
0.999997
1
0.999999
0.999993
1
1
0.999996
0.999995
1.00001
1
0.999996
1
1.00001
1
0.999997
1
1
0.999998
0.999998
1
0.999999
0.999998
0.999999
1
0.999999
0.999999
1
1
0.999999
1
1
1
1
1
1
1
1
0.999999
1
1
1
0.999999
1
1
1
0.999998
1
1
0.999996
0.999997
1.00001
0.999998
0.999991
1.00001
1
0.999986
1.00001
1.00001
0.999987
0.999995
1.00001
0.999994
0.99999
1.00001
1
0.999992
1
1
0.999996
0.999999
1
1
0.999999
1
1
1
1
1
1
1
0.999998
1
0.999998
0.999998
1
0.999999
1
1
1
1
1
1
1
1
0.999998
1
1
0.999996
0.999993
1.00001
1.00001
0.999987
0.999997
1.00002
1
0.99998
1.00001
1.00002
0.999981
0.999988
1.00002
1
0.999979
1
1.00001
0.999994
0.999994
1.00001
1.00001
0.999998
1
1
1
0.999999
1
1
1
1
1
0.999999
0.999999
1
1
1
0.999999
1
0.999999
1
0.999999
1
1
1
1
0.999997
1
1.00001
0.999991
0.999992
1.00002
0.999997
0.999967
1.00003
1.00003
0.999943
0.999994
1.00007
0.999969
0.999941
1.00006
1.00003
0.999929
1.00001
1.00006
0.999967
0.999972
1.00003
1
0.999978
1.00001
1.00001
0.999991
0.999998
1
0.999997
0.999997
0.999999
0.999999
0.999999
1
1
1
0.999998
1
0.999999
0.999998
1
1
1
0.999999
1
1
1
0.999999
1
1
1
0.999996
0.999997
1.00001
1.00001
0.999983
1.00001
1.00002
0.999987
0.999989
1.00002
0.999997
0.999986
1.00001
1.00001
0.999986
1.00001
1.00001
0.999985
0.999993
1.00001
0.999995
0.999986
1
1
0.999999
0.999999
0.999999
1
1
0.999999
1
1
0.999999
1
1
1
1
0.999993
0.999996
0.999998
1
1
1
1
1
0.999996
0.999999
1.00002
0.999985
0.999974
1.00005
1.00002
0.999917
1.00003
1.0001
0.999914
0.999934
1.00013
1
0.999867
1.00006
1.00011
0.999891
0.999944
1.00013
0.999994
0.999875
1.00007
1.00008
0.999903
0.999977
1.00008
0.999983
0.999955
1.00003
1.00001
0.999984
1
1
0.999997
0.999999
1
0.999999
1
1
1.00001
1
0.999986
0.99999
0.999994
0.999993
0.999999
1
0.999995
1
1.00001
0.999984
1
1.00002
0.999976
0.999975
1.00004
1.00001
0.999949
0.999993
1.00004
0.999989
0.999959
1.00002
1.00003
0.999973
0.999977
1.00003
1.00002
0.999964
0.999984
1.00004
1
0.99996
1.00002
1.00005
0.999982
0.999965
1.00003
1.00002
0.999974
1
1.00001
0.999991
0.999997
1
0.999998
1
1.00001
1.00001
1.00001
1.00002
0.999979
0.99998
0.999987
0.999985
0.99999
1
0.999989
0.999982
1.00003
0.999997
0.999927
1.00005
1.00008
0.99989
0.999965
1.00014
0.999949
0.999888
1.00011
1.00005
0.999883
1.00002
1.0001
0.999956
0.999929
1.00007
1.00004
0.999899
0.999981
1.00012
0.999952
0.999889
1.00011
1.00005
0.99986
1.00004
1.0001
0.999918
0.999957
1.00007
0.999999
0.999968
1.00002
1.00001
0.999998
1.00001
1.00002
1.00002
1.00002
1.00002
0.999976
0.999968
0.999977
0.999984
0.999971
0.999997
1.00003
0.999961
0.999972
1.00008
1
0.999911
1.00003
1.00008
0.999958
0.99994
1.00006
1.00005
0.999927
0.999996
1.00007
0.999979
0.999941
1.00003
1.00003
0.999963
0.999976
1.00006
1.00001
0.999926
1.00001
1.00007
0.999946
0.999942
1.00007
1.00004
0.999914
0.999983
1.00009
0.999988
0.999927
1.00004
1.00004
0.999971
1.00001
1.00003
1.00002
1.00002
1.00003
1.00002
0.999967
0.999946
0.999947
0.999982
0.999967
0.999928
1.00003
1.00005
0.999896
0.999981
1.00013
0.999952
0.999911
1.00011
0.999999
0.999904
1.00007
1.00004
0.999938
1
1.00003
0.999981
0.999957
1.00002
1.00004
0.999961
0.999985
1.00004
1.00002
0.999972
0.999996
1.00006
0.999966
0.999936
1.0001
1
0.999898
1.00009
1.00004
0.999875
1.00003
1.0001
0.999943
0.999978
1.00007
1.00003
1.00002
1.00006
1.00005
1.00003
0.999923
0.99995
0.999889
0.999905
0.999997
0.999911
0.999854
1.00004
1.00006
0.999889
0.99995
1.00009
1
0.999908
1.00001
1.00008
0.99995
0.999943
1.00006
1
0.999963
1.00001
1.00006
0.999985
0.999948
1.00005
1.00002
0.999938
0.999991
1.00004
0.999992
0.999935
1.00006
1.00005
0.999912
0.999994
1.0001
0.999987
0.999915
1.00006
1.00011
0.999936
0.999971
1.00015
1.00008
1.00001
1.0001
1.00012
1.00004
1.00009
0.999835
0.999936
0.999881
0.999775
0.99986
0.999997
0.999862
0.999822
1.00003
1
0.999913
1.00003
1.00002
0.999955
1.00003
1.00001
0.999983
1.00001
0.999994
1.00004
0.999965
0.999971
1.00008
0.999987
0.999964
1.00004
1.00001
0.999919
1.00003
1.00003
0.999956
1.00001
0.999992
1.00002
0.999993
0.999967
1.00004
0.999982
0.999976
1.00009
1
0.999985
1.00019
1.00014
1.00001
1.00016
1.00022
1.00012
1.00007
1.00017
0.999816
0.999724
0.999823
0.999829
0.999646
0.999756
0.999927
0.999813
0.999798
0.999966
1.00001
0.999903
0.999942
1.00011
0.999991
0.999907
1.00008
1.00004
0.999914
0.999964
1.00009
1.00001
0.999874
1.00003
1.00009
0.999916
0.999966
1.00013
0.999993
0.999904
1.00004
1.00009
0.999951
0.999914
1.00011
1.00001
0.999887
1.00007
1.00011
0.999981
1.00004
1.00021
1.00019
1.00009
1.00026
1.00036
1.00017
1.00021
1.0003
1.00019
0.999757
0.99942
0.999467
0.999685
0.999624
0.999472
0.999595
0.999721
0.999694
0.99975
0.999879
0.99989
0.999932
0.999964
1
0.999968
0.999936
1.00006
1.00003
0.999936
1.00004
1
0.999965
1.00004
0.999966
1.00003
0.999971
1.00003
0.999997
0.99996
1.00007
0.999962
0.999943
1.00007
1.00003
0.999995
1.00005
1.00007
1.00011
1.00013
1.00027
1.00032
1.00029
1.00044
1.00054
1.0004
1.00034
1.00057
1.00058
1.00029
0.999204
0.999427
0.99927
0.999141
0.999305
0.999363
0.999228
0.999379
0.99954
0.999504
0.999583
0.999888
0.999869
0.999761
1.00001
1.00012
0.999895
0.999937
1.00008
1.00008
0.999844
1.00005
1.00015
0.999881
0.999953
1.00005
1.00011
0.999854
0.999952
1.00016
0.999918
0.999916
1.00007
1.00011
0.999876
0.999998
1.00026
1.00013
1.00013
1.00045
1.00052
1.00048
1.00066
1.00082
1.00065
1.00074
1.00089
1.00077
1.00057
1.00085
0.998808
0.999144
0.998923
0.998815
0.99885
0.999038
0.998941
0.998963
0.999122
0.999244
0.9993
0.999483
0.999705
0.999812
0.999802
0.99993
1.00003
0.999921
1.00001
0.999972
1.00005
0.999962
0.999925
1.00008
1.00001
0.999993
0.999923
1.00007
1.00004
0.999945
1.00003
1
1.00007
0.99997
1.00009
1.00021
1.00019
1.00033
1.00056
1.00073
1.00079
1.00093
1.00108
1.0011
1.001
1.00121
1.00119
1.00116
1.00091
1.0012
0.998834
0.998326
0.998294
0.998731
0.998481
0.998446
0.998607
0.998583
0.998554
0.998817
0.998994
0.998918
0.999255
0.999595
0.999628
0.999694
0.999945
1.00006
0.999851
0.999947
1.0001
1.00001
0.99989
1.00006
1.00013
0.999875
0.999935
1.00011
0.999994
0.999898
1.00005
1.00015
0.999947
1.00006
1.00032
1.00039
1.00044
1.00079
1.00112
1.00105
1.00123
1.0015
1.00144
1.00143
1.0016
1.0016
1.00126
1.00175
1.00173
1.00123
0.998193
0.998038
0.998272
0.998486
0.99809
0.998238
0.998378
0.99841
0.998301
0.998313
0.998429
0.998725
0.998816
0.999009
0.999383
0.999668
0.999649
0.999838
1.00007
0.999983
0.999893
1.00003
1.00011
0.999893
0.999996
1.00001
1.0001
0.999893
0.99996
1.00011
1.00002
0.999931
1.00017
1.00037
1.00035
1.00066
1.00105
1.00123
1.00132
1.00164
1.00173
1.00172
1.00163
1.00167
1.00174
1.00195
1.00156
1.00176
1.00195
1.0019
0.99763
0.998387
0.998231
0.998078
0.998242
0.998578
0.998218
0.998137
0.998422
0.998253
0.998094
0.998293
0.998518
0.998486
0.998844
0.99925
0.99951
0.999502
0.999946
0.999936
0.999876
0.999965
1.00006
1.00004
0.999759
1.00023
0.999983
0.999934
1.00004
1.00012
1.00007
1.00006
1.00051
1.00053
1.0008
1.00122
1.00157
1.00154
1.00176
1.00195
1.00176
1.0016
1.00189
1.00182
1.00144
1.00178
1.00195
1.00184
1.00159
1.0024
0.997929
0.998249
0.997851
0.998154
0.998336
0.99832
0.99832
0.998344
0.998281
0.998312
0.998238
0.997896
0.998046
0.998389
0.998306
0.998579
0.999113
0.999544
0.999309
0.999886
1.00005
1
0.999868
0.999955
1.00025
0.999758
1.00002
1.00014
0.999999
0.999957
1.00012
1.00072
1.0005
1.00093
1.00151
1.00176
1.00168
1.00202
1.00215
1.00177
1.00171
1.00179
1.00167
1.0017
1.0018
1.00175
1.00183
1.00226
1.00184
1.00208
0.998061
0.997744
0.997839
0.998529
0.997991
0.997841
0.998429
0.998705
0.998127
0.998331
0.99853
0.99828
0.997855
0.998122
0.998257
0.998213
0.998574
0.999018
0.999453
0.999431
0.999913
0.999873
0.999913
1.00008
0.999967
1.00003
0.999919
1.00008
1.00013
1.0001
1.00058
1.00059
1.00105
1.00151
1.00187
1.00182
1.00194
1.00219
1.00175
1.00153
1.0017
1.00194
1.0014
1.00164
1.00225
1.00215
1.00154
1.00225
1.00232
1.00202
0.997674
0.998021
0.997843
0.997734
0.997679
0.998075
0.998012
0.997958
0.998456
0.998328
0.998298
0.998456
0.998336
0.99775
0.998022
0.998156
0.998114
0.998331
0.999029
0.99939
0.999252
0.999869
1.00007
0.999868
0.999837
1.00016
1.00014
0.999934
1.00013
1.00077
1.00068
1.00103
1.00176
1.00199
1.00192
1.00206
1.00231
1.00169
1.00157
1.00178
1.00173
1.00156
1.00218
1.00209
1.00193
1.00236
1.00237
1.00217
1.00196
1.00244
0.997561
0.998353
0.997647
0.997403
0.997715
0.99812
0.997488
0.997421
0.998257
0.998282
0.997981
0.998337
0.998483
0.998248
0.997708
0.998035
0.997923
0.998191
0.998377
0.999011
0.999447
0.999431
0.999897
0.999924
1.00005
0.999944
1.00007
1.00011
1.00057
1.00061
1.00106
1.00174
1.00191
1.00218
1.00206
1.00233
1.00178
1.00156
1.0017
1.00203
1.00181
1.00178
1.00258
1.00249
1.00192
1.0022
1.00257
1.00234
1.00166
1.00243
0.998205
0.997896
0.997494
0.998403
0.997886
0.997493
0.997865
0.998034
0.997576
0.997729
0.998371
0.998193
0.998219
0.998456
0.99836
0.997629
0.998147
0.998004
0.998042
0.998317
0.999145
0.999419
0.999346
0.999981
1.00005
0.999945
1.00001
1.00066
1.00066
1.00092
1.00178
1.0021
1.00213
1.00192
1.00243
1.00167
1.00152
1.00182
1.00184
1.00162
1.00229
1.00244
1.00193
1.00203
1.00254
1.00203
1.00152
1.00245
1.00213
1.00175
0.997902
0.997647
0.997684
0.998209
0.997752
0.997385
0.997895
0.997673
0.997402
0.997312
0.99801
0.997889
0.997857
0.998247
0.998442
0.998102
0.997535
0.997824
0.997861
0.998166
0.998348
0.999057
0.999529
0.999561
0.999873
1.00012
1.00044
1.00051
1.00102
1.00178
1.00199
1.00225
1.00227
1.00251
1.00189
1.00156
1.00172
1.0021
1.0021
1.00201
1.00264
1.00248
1.00236
1.00201
1.00253
1.00221
1.00188
1.00224
1.00227
1.0021
0.997125
0.998286
0.997781
0.997003
0.99762
0.998223
0.997485
0.997225
0.998121
0.997822
0.997014
0.997788
0.998188
0.998043
0.99791
0.998493
0.998096
0.997612
0.998092
0.997923
0.998118
0.998585
0.999357
0.999601
0.999606
1.00036
1.00046
1.0007
1.00151
1.00204
1.00224
1.00202
1.00241
1.00191
1.00143
1.002
1.00195
1.00178
1.00215
1.00294
1.00214
1.00172
1.00275
1.00245
1.0017
1.00229
1.00304
1.00216
1.00167
1.00284
0.997276
0.997859
0.997283
0.997493
0.997743
0.997823
0.997785
0.997676
0.99802
0.997729
0.997619
0.997495
0.997879
0.997702
0.997988
0.998126
0.998347
0.997999
0.997271
0.997763
0.997982
0.99825
0.998578
0.999312
1.00003
1
1.00071
1.00154
1.00192
1.00218
1.00234
1.00277
1.00197
1.00158
1.00181
1.00189
1.00225
1.00212
1.00244
1.00225
1.00229
1.00191
1.00221
1.00212
1.00224
1.00213
1.00242
1.00267
1.0022
1.00254
0.998007
0.996727
0.997095
0.998309
0.997646
0.996679
0.998094
0.998074
0.997239
0.997254
0.99822
0.997549
0.996803
0.997952
0.998198
0.997722
0.997793
0.99822
0.997862
0.997388
0.997893
0.997989
0.998368
0.999109
0.999757
1.0003
1.00096
1.00177
1.0022
1.00225
1.00264
1.00213
1.00168
1.00202
1.00218
1.00177
1.00195
1.00314
1.00239
1.0017
1.00271
1.00269
1.00191
1.00193
1.00338
1.0023
1.00174
1.0028
1.00329
1.00194
0.997065
0.997551
0.997621
0.997396
0.997337
0.997317
0.997375
0.997409
0.997765
0.997556
0.997608
0.997854
0.997838
0.997417
0.997761
0.997856
0.998182
0.998047
0.998177
0.997824
0.997232
0.997902
0.998398
0.998714
0.999464
1.00063
1.00145
1.00181
1.00223
1.00285
1.00217
1.00168
1.0018
1.00168
1.00204
1.00221
1.00254
1.00209
1.00207
1.00236
1.00238
1.0021
1.00268
1.00268
1.00258
1.00264
1.00284
1.0023
1.0024
1.00301
0.99648
0.998116
0.997466
0.99632
0.997293
0.99807
0.997144
0.996646
0.9982
0.997917
0.997128
0.997576
0.998146
0.99746
0.997018
0.998205
0.99803
0.997611
0.997735
0.997894
0.997532
0.997234
0.997899
0.998609
0.999483
1.00067
1.00158
1.00227
1.00284
1.00247
1.002
1.00203
1.0022
1.00194
1.00171
1.00292
1.00251
1.00184
1.00236
1.00279
1.00211
1.00178
1.00336
1.00277
1.00202
1.00267
1.00371
1.00248
1.00203
1.00348
0.998284
0.997087
0.99722
0.998049
0.997788
0.996913
0.998229
0.998042
0.997331
0.997605
0.998174
0.997699
0.997247
0.998001
0.997909
0.997259
0.997832
0.998193
0.998072
0.997802
0.997917
0.997689
0.997482
0.998609
0.999784
1.00049
1.00159
1.00267
1.00239
1.00193
1.002
1.00177
1.00167
1.00205
1.0027
1.00208
1.0019
1.00275
1.00226
1.00175
1.00246
1.00288
1.00191
1.00176
1.00336
1.00222
1.00188
1.00285
1.00323
1.00166
0.997339
0.996319
0.996884
0.998225
0.997074
0.996416
0.997723
0.99778
0.99654
0.996595
0.998136
0.997511
0.996921
0.997646
0.997931
0.997382
0.997259
0.998247
0.997973
0.997613
0.997615
0.997583
0.99766
0.998084
0.999371
1.00093
1.00215
1.00243
1.00238
1.00218
1.00213
1.00188
1.00164
1.00266
1.00265
1.00206
1.00224
1.00297
1.00253
1.00184
1.00341
1.00352
1.00231
1.00237
1.00368
1.0029
1.00202
1.00311
1.00377
1.00283
0.996393
0.998165
0.997982
0.995804
0.997411
0.9982
0.996913
0.996227
0.998338
0.998059
0.996783
0.997889
0.998482
0.997685
0.997332
0.998183
0.99811
0.997303
0.998038
0.99831
0.997774
0.997611
0.997914
0.998285
0.999277
1.00105
1.00199
1.0021
1.00219
1.00201
1.0015
1.00179
1.00262
1.00192
1.00177
1.00258
1.00232
1.00153
1.00209
1.00329
1.00196
1.00167
1.00384
1.00315
1.00173
1.00254
1.00447
1.00188
1.00185
1.00376
0.997005
0.998144
0.997117
0.996486
0.997252
0.997776
0.996939
0.996611
0.997587
0.997997
0.997161
0.997189
0.998172
0.997573
0.997288
0.997602
0.997671
0.997433
0.99752
0.998105
0.997882
0.997529
0.997792
0.998552
0.999655
1.00072
1.00164
1.00217
1.00223
1.0019
1.00169
1.00234
1.00257
1.00233
1.00236
1.00261
1.00244
1.00185
1.00281
1.00293
1.00208
1.00249
1.00342
1.00297
1.00238
1.00281
1.00352
1.00291
1.00215
1.00293
0.998595
0.994781
0.995872
0.998668
0.996745
0.994868
0.997905
0.997863
0.996079
0.99645
0.998249
0.997227
0.996194
0.997955
0.998171
0.99712
0.997434
0.998217
0.997972
0.997382
0.998069
0.998323
0.997889
0.998423
0.999656
1.00072
1.00166
1.00204
1.00151
1.00164
1.00241
1.00204
1.00175
1.00241
1.00284
1.00188
1.0019
1.00376
1.00289
1.00179
1.00349
1.00394
1.00219
1.00195
1.00521
1.00325
1.00144
1.00419
1.00529
1.00135
0.996029
0.99682
0.997315
0.99693
0.997265
0.996769
0.997345
0.997437
0.997392
0.997133
0.997342
0.99776
0.997813
0.99767
0.998073
0.998036
0.997883
0.997807
0.997798
0.997925
0.997941
0.998183
0.998415
0.998748
0.999661
1.00069
1.00136
1.00145
1.00157
1.00186
1.00198
1.00217
1.00215
1.00204
1.00198
1.00195
1.00227
1.00223
1.00239
1.0027
1.00284
1.00252
1.0026
1.00267
1.0031
1.00273
1.00346
1.0026
1.00308
1.00408
0.994426
0.998964
0.996879
0.993663
0.996748
0.998946
0.995704
0.994906
0.998383
0.997198
0.995266
0.996718
0.998215
0.997017
0.99636
0.998045
0.997854
0.996747
0.997319
0.997931
0.997479
0.997527
0.998499
0.99907
0.999592
1.00062
1.00103
1.00132
1.00218
1.00234
1.00193
1.00256
1.00323
1.00218
1.00182
1.00354
1.00303
1.00177
1.00322
1.00473
1.00286
1.00145
1.00496
1.00436
1.00114
1.00335
1.00637
1.00303
1.0014
1.0056
0.998332
0.995424
0.995973
0.997401
0.997317
0.99578
0.997747
0.99761
0.996757
0.997202
0.997597
0.997633
0.997337
0.997994
0.99817
0.997822
0.998013
0.998419
0.99813
0.99792
0.99821
0.998696
0.998966
0.999385
0.999916
1.0004
1.00071
1.00094
1.00115
1.00164
1.00196
1.00184
1.00157
1.00189
1.00215
1.00193
1.00206
1.00262
1.00236
1.00232
1.00268
1.00322
1.00233
1.00224
1.00441
1.00273
1.00235
1.00407
1.005
1.00141
0.997333
0.993127
0.99513
0.999667
0.995277
0.993809
0.997648
0.998122
0.995193
0.995527
0.998086
0.996964
0.995712
0.997029
0.997697
0.996889
0.997002
0.997857
0.997484
0.996949
0.99749
0.997987
0.998156
0.998975
0.99983
1.00032
1.00091
1.00162
1.0018
1.00222
1.00282
1.00248
1.00208
1.00282
1.00311
1.00239
1.00282
1.00425
1.00315
1.00179
1.00425
1.00485
1.00202
1.00229
1.00628
1.00457
1.00053
1.00513
1.00646
1.00282
0.992918
0.998889
0.998488
0.992977
0.997487
0.998164
0.996431
0.995518
0.998402
0.998058
0.995972
0.997386
0.998239
0.997414
0.997281
0.998448
0.99851
0.997712
0.99832
0.998713
0.998058
0.998181
0.99911
0.99973
1.00009
1.0003
1.00046
1.00083
1.00167
1.00183
1.00121
1.00152
1.00227
1.00157
1.00145
1.00262
1.00261
1.00177
1.00247
1.0039
1.00186
1.0015
1.00436
1.00355
1.00181
1.00251
1.00726
1.00144
1.00109
1.00757
0.994845
0.999646
0.994829
0.992763
0.996398
0.997905
0.994828
0.994879
0.997771
0.996933
0.995533
0.996476
0.997525
0.99673
0.996582
0.997634
0.99769
0.997163
0.997637
0.997689
0.99715
0.997447
0.998452
0.998947
0.999569
1.00042
1.00095
1.00124
1.00222
1.00264
1.00209
1.00213
1.00284
1.00245
1.00226
1.0034
1.00345
1.00237
1.00317
1.00435
1.00308
1.00198
1.00502
1.00513
1.00206
1.00364
1.00722
1.00456
1.00124
1.00564
0.999957
0.988348
0.994427
1.00145
0.996759
0.992779
0.998385
0.999041
0.99535
0.996342
0.99877
0.997617
0.995659
0.997528
0.998493
0.997363
0.99745
0.998734
0.998571
0.997869
0.998292
0.998684
0.998789
0.999341
1.00015
1.00051
1.00089
1.0011
1.00114
1.00148
1.00189
1.00132
1.00108
1.00232
1.00263
1.00158
1.00229
1.00419
1.00251
1.00118
1.00337
1.0046
1.00095
1.00161
1.00694
1.00292
0.998827
1.00593
1.0102
0.997883
0.991323
0.991274
0.995111
0.997072
0.994665
0.994336
0.996977
0.996401
0.995467
0.996677
0.997269
0.996519
0.996224
0.997104
0.99735
0.997227
0.997578
0.998111
0.997779
0.997523
0.997563
0.997369
0.997654
0.998812
0.999804
1.00043
1.00105
1.00202
1.0023
1.00208
1.00216
1.0022
1.00193
1.00239
1.00287
1.00277
1.00274
1.0036
1.00343
1.00245
1.00282
1.0044
1.00355
1.00269
1.00523
1.00509
1.00258
1.00498
1.00766
1.00719
0.989045
1.00422
0.997023
0.989372
0.997016
0.999917
0.994852
0.994628
0.998758
0.998184
0.995169
0.996675
0.998125
0.996718
0.996313
0.99809
0.998502
0.997877
0.998369
0.998643
0.997691
0.997581
0.998197
0.99868
0.999548
1.00104
1.00161
1.00176
1.00212
1.00189
1.00089
1.00124
1.00216
1.00154
1.00166
1.00377
1.00358
1.00156
1.00292
1.00508
1.00163
1.00064
1.00554
1.00551
0.998906
1.00348
1.01125
1.00026
0.995856
1.02128

VECTORS velocity double
1.82348e-07 4.53129e-07 0
-7.64461e-07 -5.71072e-08 0
-7.13206e-07 -6.37964e-08 0
-6.46998e-07 -7.00364e-08 0
-5.69651e-07 -7.58875e-08 0
-4.85601e-07 -8.15243e-08 0
-3.99968e-07 -8.73313e-08 0
-3.18544e-07 -9.3813e-08 0
-2.47284e-07 -1.01167e-07 0
-1.9122e-07 -1.0887e-07 0
-1.53607e-07 -1.1598e-07 0
-1.36253e-07 -1.21992e-07 0
-1.40329e-07 -1.26865e-07 0
-1.65977e-07 -1.30083e-07 0
-2.11252e-07 -1.30726e-07 0
-2.72651e-07 -1.28782e-07 0
-3.46671e-07 -1.24957e-07 0
-4.29718e-07 -1.19087e-07 0
-5.16989e-07 -1.10423e-07 0
-6.02859e-07 -9.90219e-08 0
-6.81964e-07 -8.53424e-08 0
-7.49307e-07 -6.95056e-08 0
-8.00237e-07 -5.17504e-08 0
-8.30888e-07 -3.25799e-08 0
-8.38397e-07 -1.24341e-08 0
-8.20958e-07 0 0
-7.7797e-07 2.87903e-08 0
-7.10065e-07 4.8804e-08 0
-6.18992e-07 6.77903e-08 0
-5.07609e-07 8.52051e-08 0
-3.79702e-07 1.00756e-07 0
-2.39579e-07 1.14261e-07 0
-9.21211e-08 1.2519e-07 0
5.73062e-08 1.33408e-07 0
2.03909e-07 1.39578e-07 0
3.43851e-07 1.43784e-07 0
4.73147e-07 1.45246e-07 0
5.87572e-07 1.439e-07 0
6.84225e-07 1.40585e-07 0
7.62078e-07 1.35746e-07 0
8.20941e-07 1.2936e-07 0
8.61115e-07 1.21892e-07 0
8.84246e-07 1.1426e-07 0
8.93705e-07 1.06985e-07 0
8.93779e-07 9.98792e-08 0
8.88633e-07 9.24591e-08 0
8.81844e-07 8.43732e-08 0
8.7643e-07 7.54934e-08 0
8.74949e-07 6.58181e-08 0
1.34488e-06 -1.88155e-07 0
7.65261e-07 0 0
1.05241e-06 9.97115e-08 0
2.58509e-07 -6.2794e-08 0
2.20843e-07 -6.14258e-08 0
1.82851e-07 -6.18915e-08 0
1.44845e-07 -6.60492e-08 0
1.04174e-07 -7.67195e-08 0
5.55468e-08 -9.60001e-08 0
0 -1.22794e-07 0
-7.97753e-08 -1.53344e-07 0
-1.64733e-07 -1.85329e-07 0
-2.59637e-07 -2.18208e-07 0
-3.62551e-07 -2.47646e-07 0
-4.64917e-07 -2.66695e-07 0
-5.56747e-07 -2.75953e-07 0
-6.36535e-07 -2.81125e-07 0
-7.06113e-07 -2.7936e-07 0
-7.60572e-07 -2.64626e-07 0
-7.95204e-07 -2.41685e-07 0
-8.13876e-07 -2.15996e-07 0
-8.20758e-07 -1.83012e-07 0
-8.1484e-07 -1.40895e-07 0
-7.96282e-07 -9.41706e-08 0
-7.67478e-07 -4.39555e-08 0
-7.29785e-07 0 0
-6.84334e-07 6.34089e-08 0
-6.32403e-07 1.16753e-07 0
-5.75411e-07 1.67068e-07 0
-5.14461e-07 2.139e-07 0
-4.49452e-07 2.56097e-07 0
-3.82304e-07 2.89059e-07 0
-3.15851e-07 3.14548e-07 0
-2.47432e-07 3.37036e-07 0
-1.74321e-07 3.50994e-07 0
-1.01918e-07 3.51672e-07 0
-3.52706e-08 3.45121e-07 0
2.78076e-08 3.34111e-07 0
8.6572e-08 3.12858e-07 0
1.32267e-07 2.80797e-07 0
1.58104e-07 2.44916e-07 0
1.64366e-07 2.09556e-07 0
1.52751e-07 1.75285e-07 0
1.23939e-07 1.44525e-07 0
8.15377e-08 1.21164e-07 0
3.34926e-08 1.06389e-07 0
-1.1494e-08 9.81539e-08 0
-4.74688e-08 9.36578e-08 0
-7.16832e-08 9.10394e-08 0
2.83213e-07 0 0
1.04324e-06 9.96247e-08 0
3.94735e-07 -1.99907e-08 0
3.97936e-07 -3.41413e-07 0
6.09268e-07 -4.61922e-08 0
6.29535e-07 -3.80952e-08 0
6.16154e-07 -3.96799e-08 0
5.77531e-07 -5.42043e-08 0
4.97989e-07 -8.9308e-08 0
3.65461e-07 -1.44471e-07 0
1.834e-07 -2.08875e-07 0
-3.22895e-08 -2.74294e-07 0
-2.67823e-07 -3.40783e-07 0
-5.05908e-07 -3.95971e-07 0
-7.0538e-07 -4.14073e-07 0
-8.23152e-07 -3.99552e-07 0
-8.56865e-07 -3.82251e-07 0
-8.1645e-07 -3.4906e-07 0
-6.76547e-07 -2.7215e-07 0
-4.27668e-07 -1.92651e-07 0
-1.2136e-07 -1.47789e-07 0
2.00799e-07 -9.67146e-08 0
5.38395e-07 -2.82861e-08 0
8.64885e-07 1.11466e-08 0
1.12861e-06 2.75069e-08 0
1.30851e-06 5.45952e-08 0
1.39885e-06 7.71955e-08 0
1.38357e-06 8.62138e-08 0
1.26104e-06 1.05081e-07 0
1.04423e-06 1.24917e-07 0
7.36162e-07 1.30787e-07 0
3.55822e-07 1.57045e-07 0
-4.64984e-08 2.09916e-07 0
-4.45049e-07 2.43586e-07 0
-8.38883e-07 2.70654e-07 0
-1.18438e-06 3.32722e-07 0
-1.42777e-06 3.92406e-07 0
-1.5763e-06 4.09369e-07 0
-1.65196e-06 4.12608e-07 0
-1.64089e-06 4.1523e-07 0
-1.54239e-06 3.87041e-07 0
-1.39727e-06 3.23904e-07 0
-1.24452e-06 2.51948e-07 0
-1.09979e-06 1.83375e-07 0
-9.76262e-07 1.17909e-07 0
-8.90149e-07 6.3769e-08 0
-8.45751e-07 3.17394e-08 0
-8.32275e-07 2.21167e-08 0
-8.35741e-07 2.69375e-08 0
-8.55554e-07 4.0346e-08 0
5.37147e-07 -1.28182e-07 0
2.65767e-07 -2.23093e-08 0
1.59044e-06 9.82251e-08 0
1.35051e-06 0 0
9.20152e-07 -5.34181e-08 0
8.78506e-08 -1.98791e-07 0
0 -2.35036e-07 0
-1.10008e-07 -3.04179e-07 0
-2.95475e-07 -4.11029e-07 0
-5.48296e-07 -5.32002e-07 0
-8.37668e-07 -6.40371e-07 0
-1.14044e-06 -7.36294e-07 0
-1.43692e-06 -8.01611e-07 0
-1.65552e-06 -7.68724e-07 0
-1.71682e-06 -6.43258e-07 0
-1.65957e-06 -5.28601e-07 0
-1.55032e-06 -3.94843e-07 0
-1.3132e-06 -1.29537e-07 0
-9.1161e-07 1.21439e-07 0
-5.19749e-07 2.01584e-07 0
-2.09038e-07 3.17669e-07 0
1.58038e-07 5.19595e-07 0
5.42741e-07 5.19536e-07 0
7.73896e-07 3.9134e-07 0
8.90041e-07 3.54843e-07 0
9.69984e-07 2.63439e-07 0
9.60152e-07 8.02655e-08 0
8.30291e-07 -9.54219e-08 0
5.86167e-07 -2.81599e-07 0
2.70938e-07 -3.76498e-07 0
-5.10948e-08 -4.21107e-07 0
-4.52011e-07 -5.60515e-07 0
-9.61244e-07 -5.68859e-07 0
-1.40021e-06 -3.76569e-07 0
-1.73175e-06 -2.74445e-07 0
-2.09604e-06 -2.05573e-07 0
-2.42047e-06 3.83432e-08 0
-2.53493e-06 2.95437e-07 0
-2.48662e-06 4.20739e-07 0
-2.35983e-06 5.30815e-07 0
-2.09403e-06 6.54447e-07 0
-1.65912e-06 6.86197e-07 0
-1.1444e-06 6.21528e-07 0
-6.2897e-07 5.28985e-07 0
-1.38433e-07 4.25974e-07 0
2.98289e-07 3.11738e-07 0
6.45258e-07 2.13072e-07 0
8.98721e-07 1.53379e-07 0
1.08412e-06 1.27361e-07 0
1.56226e-06 6.03404e-08 0
2.03071e-06 5.01439e-07 0
8.30151e-07 -1.06462e-07 0
-2.94614e-07 -2.29397e-07 0
-6.48581e-07 1.21964e-07 0
-1.27144e-07 -2.77876e-07 0
6.71252e-08 -9.6779e-08 0
-2.10451e-07 -2.33021e-07 0
-3.08188e-07 -3.87427e-07 0
-4.91279e-07 -5.8814e-07 0
-7.02235e-07 -7.70489e-07 0
-8.81856e-07 -9.21592e-07 0
-1.01046e-06 -1.03247e-06 0
-9.90517e-07 -9.82297e-07 0
-7.11811e-07 -7.4503e-07 0
-3.135e-07 -5.75229e-07 0
-3.11489e-08 -4.6996e-07 0
2.69889e-07 -8.40732e-08 0
6.71599e-07 2.82158e-07 0
7.1715e-07 1.5539e-07 0
2.88152e-07 1.78536e-07 0
-5.19448e-08 6.46039e-07 0
-3.4238e-07 5.72364e-07 0
-1.10043e-06 9.65633e-08 0
-1.93969e-06 3.12104e-07 0
-2.30105e-06 5.40768e-07 0
-2.58877e-06 -5.552e-08 0
-3.01502e-06 -3.39906e-07 0
-3.01196e-06 1.61652e-08 0
-2.58324e-06 -2.64293e-07 0
-2.29076e-06 -8.30869e-07 0
-1.90305e-06 -5.48998e-07 0
-1.01562e-06 -2.86433e-07 0
-2.03174e-07 -7.15073e-07 0
1.55992e-07 -7.16673e-07 0
5.93329e-07 -1.76722e-07 0
1.12978e-06 -1.03333e-07 0
1.18233e-06 -1.80067e-07 0
8.74531e-07 2.38865e-07 0
6.60307e-07 6.58743e-07 0
4.38492e-07 7.81742e-07 0
6.56001e-08 9.64211e-07 0