# vtk DataFile Version 4.0
SiWiRVisFile
ASCII
DATASET STRUCTURED_POINTS
DIMENSIONS 70 80 1
ORIGIN 0 0 0
SPACING 1 1 1
POINT_DATA 5600

SCALARS flags double 1
LOOKUP_TABLE default
1
1
1
1
1
1
1
1
1
1
1
1
1
1
1
1
1
1
1
1
1
1
1
1
1
1
1
1
1
1
1
1
1
1
1
1
1
1
1
1
1
1
1
1
1
1
1
1
1
1
1
1
1
1
1
1
1
1
1
1
1
1
1
1
1
1
1
1
1
1
1
1
1
1
1
1
1
1
1
1
1
1
1
1
1
1
1
1
1
1
1
1
1
1
1
1
1
1
1
1
1
1
1
1
1
1
1
1
1
1
1
1
1
1
1
1
1
1
1
1
1
1
1
1
1
1
1
1
1
1
1
1
1
1
1
1
1
1
1
1
1
1
1
1
1
1
1
1
1
1
1
1
1
1
1
1
1
1
1
1
1
1
1
1
1
1
1
1
1
1
1
1
1
1
1
1
1
1
1
1
1
1
1
1
1
1
1
1
1
1
1
1
1
1
1
1
1
1
1
1
1
1
1
1
1
1
1
1
1
1
1
1
1
1
1
1
1
1
1
1
1
1
1
1
1
1
1
1
1
1
1
1
1
1
1
1
1
1
1
1
1
1
1
1
1
1
1
1
1
1
1
1
1
1
1
1
1
1
1
1
1
1
1
1
1
1
1
1
1
1
1
1
1
1
1
1
1
1
1
1
1
1
1
1
1
1
1
1
1
1
1
1
1
1
1
1
1
1
1
1
1
1
1
1
1
1
1
1
1
1
1
1
1
1
1
1
1
1
1
1
1
1
1
1
1
1
1
1
1
1
1
1
1
1
1
1
1
1
1
1
1
1
1
1
1
1
1
1
1
1
1
1
1
1
1
1
1
1
1
1
1
1
1
1
1
1
1
1
1
1
1
1
1
1
1
1
1
1
1
1
1
1
1
1
1
1
1
1
1
1
1
1
1
1
1
1
1
1
1
1
1
1
1
1
1
1
1
1
1
1
1
1
1
1
1
1
1
1
1
1
1
1
1
1
1
1
1
1
1
1
1
1
1
1
1
1
1
1
1
1
1
1
1
1
1
1
1
1
1
1
1
1
1
1
1
1
1
1
1
1
1
1
1
1
1
1
1
1
1
1
1
1
1
1
1
1
1
1
1
1
1
1
1
1
1
1
1
1
1
1
1
1
1
1
1
1
1
1
1
1
1
1
1
1
1
1
1
1
1
1
1
1
1
1
1
1
1
1
1
1
1
1
1
1
1
1
1
1
1
1
1
1
1
1
1
1
1
1
1
1
1
1
1
1
1
1
1
1
1
1
1
1
1
1
1
1
1
1
1
1
1
1
1
1
1
1
1
1
1
1
1
1
1
1
1
1
1
1
1
1
1
1
1
1
1
1
1
1
1
1
1
1
1
1
1
1
1
1
1
1
1
1
1
1
1
1
1
1
1
1
1
1
1
1
1
1
1
1
1
1
1
1
1
1
1
1
1
1
1
1
1
1
1
1
1
1
1
1
1
1
1
1
1
1
1
1
1
1
1
1
1
1
1
1
1
1
1
1
1
1
1
1
1
1
1
1
1
1
1
1
1
1
1
1
1
1
1
1
1
1
1
1
1
1
1
1
1
1
1
1
1
1
1
1
1
1
1
1
1
1
1
1
1
1
1
1
1
1
1
1
1
1
1
1
1
1
1
1
1
1
1
1
1
1
1
1
1
1
1
1
1
1
1
1
1
1
1
1
1
1
1
1
1
1
1
1
1
1
1
1
1
1
1
1
1
1
1
1
1
1
1
1
1
1
1
1
1
1
1
1
1
1
1
1
1
1
1
1
1
1
1
1
1
1
1
1
1
1
1
1
1
1
1
1
1
1
1
1
1
1
1
1
1
1
1
1
1
1
1
1
1
1
1
1
1
1
1
1
1
1
1
1
1
1
1
1
1
1
1
1
1
1
1
1
1
1
1
1
1
1
1
1
1
1
1
1
1
1
1
1
1
1
1
1
1
1
1
1
1
1
1
1
1
1
1
1
1
1
1
1
1
1
1
1
1
1
1
1
1
1
1
1
1
1
1
1
1
1
1
1
1
1
1
1
1
1
1
1
1
1
1
1
1
1
1
1
1
1
1
1
1
1
1
1
1
1
1
1
1
1
1
1
1
1
1
1
1
1
1
1
1
1
1
1
1
1
1
1
1
1
1
1
1
1
1
1
1
1
1
1
1
1
1
1
1
1
1
1
1
1
1
1
1
1
1
1
1
1
1
1
1
1
1
1
1
1
1
1
1
1
1
1
1
1
1
1
1
1
1
1
1
1
1
1
1
1
1
1
1
1
1
1
1
1
1
1
1
1
1
1
1
1
1
1
1
1
1
1
1
1
1
1
1
1
1
1
1
1
1
1
1
1
1
1
1
1
1
1
1
1
1
1
1
1
1
1
1
1
1
1
1
1
1
1
1
1
1
1
1
1
1
1
1
1
1
1
1
1
1
1
1
1
1
1
1
1
1
1
1
1
1
1
1
1
1
1
1
1
1
1
1
1
1
1
1
1
1
1
1
1
1
1
1
1
1
1
1
1
1
1
1
1
1
1
1
1
1
1
1
1
1
1
1
1
1
1
1
1
1
1
1
1
1
1
1
1
1
1
1
1
1
1
1
1
1
1
1
1
1
1
1
1
1
1
1
1
1
1
1
1
1
1
1
1
1
1
1
1
1
1
1
1
1
1
1
1
1
1
1
1
1
1
1
1
1
1
1
1
1
1
1
1
1
1
1
1
1
1
1
1
1
1
1
1
1
1
1
1
1
1
1
1
1
1
1
1
1
1
1
1
1
1
1
1
1
1
1
1
1
1
1
1
1
1
1
1
1
1
1
1
1
1
1
1
1
1
1
1
1
1
1
1
1
1
1
1
1
1
1
1
1
1
1
1
1
1
1
1
1
1
1
1
1
1
1
1
1
1
1
1
1
1
1
1
1
1
1
1
1
1
1
1
1
1
1
1
1
1
1
1
1
1
1
1
1
1
1
1
1
1
1
1
1
1
1
1
1
1
1
1
1
1
1
1
1
1
1
1
1
1
1
1
1
1
1
1
1
1
1
1
1
1
1
1
1
1
1
1
1
1
1
1
1
1
1
1
1
1
1
1
1
1
1
1
1
1
1
1
1
1
1
1
1
1
1
1
1
1
1
1
1
1
1
1
1
1
1
1
1
1
1
1
1
1
1
1
1
1
1
1
1
1
1
1
1
1
1
1
1
1
1
1
1
1
1
1
1
1
1
1
1
1
1
1
1
1
1
1
1
1
1
1
1
1
1
1
1
1
1
1
1
1
1
1
1
1
1
1
1
1
1
1
1
1
1
1
1
1
1
1
1
1
1
1
1
1
1
1
1
1
1
1
1
1
1
1
1
1
1
1
1
1
1
1
1
1
1
1
1
1
1
1
1
1
1
1
1
1
1
1
1
1
1
1
1
1
1
1
1
1
1
1
1
1
1
1
1
1
1
1
1
1
1
1
1
1
1
1
1
1
1
1
1
1
1
1
1
1
1
1
1
1
1
1
1
1
1
1
1
1
1
1
1
1
1
1
1
1
1
1
1
1
1
1
1
1
1
1
1
1
1
1
1
1
1
1
1
1
1
1
1
1
1
1
1
1
1
1
1
1
1
1
1
1
1
1
1
1
1
1
1
1
1
1
1
1
1
1
1
1
1
1
1
1
1
1
1
1
1
1
1
1
1
1
1
1
1
1
1
1
1
1
1
1
1
1
1
1
1
1
1
1
1
1
1
1
1
1
1
1
1
1
1
1
1
1
1
1
1
1
1
1
1
1
1
1
1
1
1
1
1
1
1
1
1
1
1
1
1
1
1
1
1
1
1
1
1
1
1
1
1
1
1
1
1
1
1
1
1
1
1
1
1
1
1
1
1
1
1
1
1
1
1
1
1
1
1
1
1
1
1
1
1
1
1
1
1
1
1
1
1
1
1
1
1
1
1
1
1
1
1
1
1
1
1
1
1
1
1
1
1
1
1
1
1
1
1
1
1
1
1
1
1
1
1
1
1
1
1
1
1
1
1
1
1
1
1
1
1
1
1
1
1
1
1
1
1
1
1
1
1
1
1
1
1
1
1
1
1
1
1
1
1
1
1
1
1
1
1
1
1
1
1
1
1
1
1
1
1
1
1
1
1
1
1
1
1
1
1
1
1
1
1
1
1
1
1
1
1
1
1
1
1
1
1
1
1
1
1
1
1
1
1
1
1
1
1
1
1
1
1
1
1
1
1
1
1
1
1
1
1
1
1
1
1
1
1
1
1
1
1
1
1
1
1
1
1
1
1
1
1
1
1
1
1
1
1
1
1
1
1
1
1
1
1
1
1
1
1
1
1
1
1
1
1
1
1
1
1
1
1
1
1
1
1
1
1
1
1
1
1
1
1
1
1
1
1
1
1
1
1
1
1
1
1
1
1
1
1
1
1
1
1
1
1
1
1
1
1
1
1
1
1
1
1
1
1
1
1
1
1
1
1
1
1
1
1
1
1
1
1
1
1
1
1
1
1
1
1
1
1
1
1
1
1
1
1
1
1
1
1
1
1
1
1
1
1
1
1
1
1
1
1
1
1
1
1
1
1
1
1
1
1
1
1
1
1
1
1
1
1
1
1
1
1
1
1
1
1
1
1
1
1
1
1
1
1
1
1
1
1
1
1
1
1
1
1
1
1
1
1
1
1
1
1
1
1
1
1
1
1
1
1
1
1
1
1
1
1
1
1
1
1
1
1
1
1
1
1
1
1
1
1
1
1
1
1
1
1
1
1
1
1
1
1
1
1
1
1
1
1
1
1
1
1
1
1
1
1
1
1
1
1
1
1
1
1
1
1
1
1
1
1
1
1
1
1
1
1
1
1
1
1
1
1
1
1
1
1
1
1
1
1
1
1
1
1
1
1
1
1
1
1
1
1
1
1
1
1
1
1
1
1
1
1
1
1
1
1
1
1
1
1
1
1
1
1
1
1
1
1
1
1
1
1
1
1
1
1
1
1
1
1
1
1
1
1
1
1
1
1
1
1
1
1
1
1
1
1
1
1
1
1
1
1
1
1
1
1
1
1
1
1
1
1
1
1
1
1
1
1
1
1
1
1
1
1
1
1
1
1
1
1
1
1
1
1
1
1
1
1
1
1
1
1
1
1
1
1
1
1
1
1
1
1
1
1
1
1
1
1
1
1
1
1
1
1
1
1
1
1
1
1
1
1
1
1
1
1
1
1
1
1
1
1
1
1
1
1
1
1
1
1
1
1
1
1
1
1
1
1
1
1
1
1
1
1
1
1
1
1
1
1
1
1
1
1
1
1
1
1
1
1
1
1
1
1
1
1
1
1
1
1
1
1
1
1
1
1
1
1
1
1
1
1
1
1
1
1
1
1
1
1
1
1
1
1
1
1
1
1
1
1
1
1
1
1
1
1
1
1
1
1
1
1
1
1
1
1
1
1
1
1
1
1
1
1
1
1
1
1
1
1
1
1
1
1
1
1
1
1
1
1
1
1
1
1
1
1
1
1
1
1
1
1
1
1
1
1
1
1
1
1
1
1
1
1
1
1
1
1
1
1
1
1
1
1
1
1
1
1
1
1
1
1
1
1
1
1
1
1
1
1
1
1
1
1
1
1
1
1
1
1
1
1
1
1
1
1
1
1
1
1
1
1
1
1
1
1
1
1
1
1
1
1
1
1
1
1
1
1
1
1
1
1
1
1
1
1
1
1
1
1
1
1
1
1
1
1
1
1
1
1
1
1
1
1
1
1
1
1
1
1
1
1
1
1
1
1
1
1
1
1
1
1
1
1
1
1
1
1
1
1
1
1
1
1
1
1
1
1
1
1
1
1
1
1
1
1
1
1
1
1
1
1
1
1
1
1
1
1
1
1
1
1
1
1
1
1
1
1
1
1
1
1
1
1
1
1
1
1
1
1
1
1
1
1
1
1
1
1
1
1
1
1
1
1
1
1
1
1
1
1
1
1
1
1
1
1
1
1
1
1
1
1
1
1
1
1
1
1
1
1
1
1
1
1
1
1
1
1
1
1
1
1
1
1
1
1
1
1
1
1
1
1
1
1
1
1
1
1
1
1
1
1
1
1
1
1
1
1
1
1
1
1
1
1
1
1
1
1
1
1
1
1
1
1
1
1
1
1
1
1
1
1
1
1
1
1
1
1
1
1
1
1
1
1
1
1
1
1
1
1
1
1
1
1
1
1
1
1
1
1
1
1
1
1
1
1
1
1
1
1
1
1
1
1
1
1
1
1
1
1
1
1
1
1
1
1
1
1
1
1
1
1
1
1
1
1
1
1
1
1
1
1
1
1
1
1
1
1
1
1
1
1
1
1
1
1
1
1
1
1
1
1
1
1
1
1
1
1
1
1
1
1
1
1
1
1
1
1
1
1
1
1
1
1
1
1
1
1
1
1
1
1
1
1
1
1
1
1
1
1
1
1
1
1
1
1
1
1
1
1
1
1
1
1
1
1
1
1
1
1
1
1
1
1
1
1
1
1
1
1
1
1
1
1
1
1
1
1
1
1
1
1
1
1
1
1
1
1
1
1
1
1
1
1
1
1
1
1
1
1
1
1
1
1
1
1
1
1
1
1
1
1
1
1
1
1
1
1
1
1
1
1
1
1
1
1
1
1
1
1
1
1
1
1
1
1
1
1
1
1
1
1
1
1
1
1
1
1
1
1
1
1
1
1
1
1
1
1
1
1
1
1
1
1
1
1
1
1
1
1
1
1
1
1
1
1
1
1
1
1
1
1
1
1
1
1
1
1
1
1
1
1
1
1
1
1
1
1
1
1
1
1
1
1
1
1
1
1
1
1
1
1
1
1
1
1
1
1
1
1
1
1
1
1
1
1
1
1
1
1
1
1
1
1
1
1
1
1
1
1
1
1
1
1
1
1
1
1
1
1
1
1
1
1
1
1
1
1
1
1
1
1
1
1
1
1
1
1
1
1
1
1
1
1
1
1
1
1
1
1
1
1
1
1
1
1
1
1
1
1
1
1
1
1
1
1
1
1
1
1
1
1
1
1
1
1
1
1
1
1
1
1
1
1
1
1
1
1
1
1
1
1
1
1
1
1
1
1
1
1
1
1
1
1
1
1
1
1
1
1
1
1
1
1
1
1
1
1
1
1
1
1
1
1
1
1
1
1
1
1
1
1
1
1
1
1
1
1
1
1
1
1
1
1
1
1
1
1
1
1
1
1
1
1
1
1
1
1
1
1
1
1
1
1
1
1
1
1
1
1
1
1
1
1
1
1
1
1
1
1
1
1
1
1
1
1
1
1
1
1
1
1
1
1
1
1
1
1
1
1
1
1
1
1
1
1
1
1
1
1
1
1
1
1
1
1
1
1
1
1
1
1
1
1
1
1
1
1
1
1
1
1
1
1
1
1
1
1
1
1
1
1
1
1
1
1
1
1
1
1
1
1
1
1
1
1
1
1
1
1
1
1
1
1
1
1
1
1
1
1
1
1
1
1
1
1
1
1
1
1
1
1
1
1
1
1
1
1
1
1
1
1
1
1
1
1
1
1
1
1
1
1
1
1
1
1
1
1
1
1
1
1
1
1
1
1
1
1
1
1
1
1
1
1
1
1
1
1
1
1
1
1
1
1
1
1
1
1
1
1
1
1
1
1
1
1
1
1
1
1
1
1
1
1
1
1
1
1
1
1
1
1
1
1
1
1
1
1
1
1
1
1
1
1
1
1
1
1
1
1
1
1
1
1
1
1
1
1
1
1
1
1
1
1
1
1
1
1
1
1
1
1
1
1
1
1
1
1
1
1
1
1
1
1
1
1
1
1
1
1
1
1
1
1
1
1
1
1
1
1
1
1
1
1
1
1
1
1
1
1
1
1
1
1
1
1
1
1
1
1
1
1
1
1
1
1
1
1
1
1
1
1
1
1
1
1
1
1
1
1
1
1
1
1
1
1
1
1
1
1
1
1
1
1
1
1
1
1
1
1
1
1
1
1
1
1
1
1
1
1
1
1
1
1
1
1
1
1
1
1
1
1
1
1
1
1
1
1
1
1
1
1
1
1
1
1
1
1
1
1
1
1
1
1
1
1
1
1
1
1
1
1
1
1
1
1
1
1
1
1
1
1
1
1
1
1
1
1
1
1
1
1
1
1
1
1
1
1
1
1
1
1
1
1
1
1
1
1
1
1
1
1
1
1
1
1
1
1
1
1
1
1
1
1
1
1
1
1
1
1
1
1
1
1
1
1
1
1
1
1
1
1
1
1
1
1
1
1
1
1
1
1
1
1
1
1
1
1
1
1
1
1
1
1
1
1
1
1
1
1
1
1
1
1
1
1
1
1
1
1
1
1
1
1
1
1
1
1
1
1
1
1
1
1
1
1
1
1
1
1
1
1
1
1
1
1
1
1
1
1
1
1
1
1
1
1
1
1
1
1
1
1
1
1
1
1
1
1
1
1
1
1
1
1
1
1
1
1
1
1
1
1
1
1
1
1
1
1
1
1
1
1
1
1
1
1
1
1
1
1
1
1
1
1
1
1
1
1
1
1
1
1
1
1
1
1
1
1
1
1
1
1
1
1
1
1
1
1
1
1
1
1
1
1
1
1
1
1
1
1
1
1
1
1
1
1
1
1
1
1
1
1
1
1
1
1
1
1
1
1
1
1
1
1
1
1
1
1
1
1
1
1
1
1
1
1
1
1
1
1
1
1
1
1
1
1
1
1
1
1
1
1
1
1
1
1
1
1
1
1
1
1
1
1
1
1
1
1
1
1
1
1
1
1
1
1
1
1
1
1
1
1
1
1
1
1
1
1
1
1
1
1
1
1
1
1
1
1
1
1
1
1
1
1
1
1
1
1
1
1
1
1
1
1
1
1
1
1
1
1
1
1
1
1
1
1
1
1
1
1
1
1
1
1
1
1
1
1
1
1
1
1
1
1
1
1
1
1
1
1
1
1
1
1
1
1
1
1
1
1
1
1
1
1
1
1
1
1
1
1
1
1
1
1
1
1
1
1
1
1
1
1
1
1
1
1
1
1
1
1
1
1
1
1
1
1
1
1
1
1
1
1
1
1
1
1
1
1
1
1
1
1
1
1
1
1
1
1
1
1
1
1
1
1
1
1
1
1
1
1
1
1
1
1
1
1
1
1
1
1
1
1
1
1
1
1
1
1
1
1
1
1
1
1
1
1
1
1
1
1
1
1
1
1
1
1
1
1
1
1
1
1
1
1
1
1
1
1
1
1
1
1
1
1
1
1
1
1
1
1
1
1
1
1
1
1
1
1
1
1
1
1
1
1
1
1
1
1
1
1
1
1
1
1
1
1
1
1
1
1
1
1
1
1
1
1
1
1
1
1
1
1
1
1
1
1
1
1
1
1
1
1
1
1
1
1
1
1
1
1
1
1
1
1
1
1
1
1
1
1
1
1
1
1
1
1
1
1
1
1
1
1
1
1
1
1
1
1
1
1
1
1
1
1
1
1
1
1
1
1
1
1
1
1
1
1
1
1
1
1
1
1
1
1
1
1
1
1
1
1
1
1
1
1
1
1
1
1
1
1
1
1
1
1
1
1
1
1
1
1
1
1
1
1
1
1
1
1
1
1
1
1
1
1
1
1
1
1
1
1
1
1
1
1
1
1
1
1
1
1
1
1
1
1
1
1
1
1
1
1
1
1
1
1
1
1
1
1
1
1
1
1
1
1
1
1
1
1
1
1
1
1
1
1
1
1
1
1
1
1
1
1
1
1
1
1
1
1
1
1
1
1
1
1
1
1
1
1
1
1
1
1
1
1
1
1
1
1
1
1
1
1
1
1
1
1
1
1
1
1
1
1
1
1
1
1
1
1
1
1
1
1
1
1
1
1
1
1
1
1
1
1
1
1
1
1
1
1
1
1
1
1
1
1
1
1
1
1
1
1
1
1
1
1
1
1
1
1
1
1
1
1
1
1
1
1
1
1
1
1
1
1
1
1
1
1
1
1
1
1
1
1
1
1
1
1
1
1
1
1
1
1
1
1
1
1
1
1
1
1
1
1
1
1
1
1
1
1
1
1
1
1
1
1
1
1
1
1
1
1
1
1
1
1
1
1
1
1
1
1
1
1
1
1
1
1
1
1
1
1
1
1
1
1
1
1
1
1
1
1
1
1
1
1
1
1
1
1
1
1
1
1
1
1
1
1
1
1
1
1
1
1
1
1
1
1
1
1
1
1
1
1
1
1
1
1
1
1
1
1
1
1
1
1
1
1
1
1
1
1
1
1
1
1
1
1
1
1
1
1
1
1
1
1
1
1
1
1
1
1
1
1
1
1
1
1
1
1
1
1
1
1
1
1
1
1
1
1
1
1
1
1
1
1
1
1
1
1
1
1
1
1
1
1
1
1
1
1
1
1
1
1
1
1
1
1
1
1
1
1
1
1
1
1
1
1
1
1
1
1
1
1
1
1
1
1
1
1
1
1
1
1
1
1
1
1
1
1
1
1
1
1
1
1
1
1
1
1
1
1
1
1
1
1
1
1
1
1
1
1
1
1
1
1
1
1
1
1
1
1
1
1
1
1
1
1
1
1
1
1
1
1
1
1
1
1
1
1
1
1
1
1
1
1
1
1
1
1
1
1
1
1
1
1
1
1
1
1
1
1
1
1
1
1
1
1
1
1
1
1
1
1
1
1
1
1
1
1
1
1
1
1
1
1
1
1
1
1
1
1
1
1
1
1
1
1
1
1
1
1
1
1
1
1
1
1
1
1
1
1
1
1
1
1
1
1
1
1
1
1
1
1
1
1
1
1
1
1
1
1
1
1
1
1
1
1
1
1
1
1
1
1
1
1
1
1
1
1
1
1
1
1
1
1
1
1
1
1
1
1
1
1
1
1
1
1
1
1
1
1
1
1
1
1
1
1
1
1
1
1
1
1
1
1
1
1
1
1
1
1
1
1
1
1
1
1
1
1
1
1
1
1
1
1
1
1
1
1
1
1
1
1
1
1
1
1
1
1
1
1
1
1
1
1
1
1
1
1
1
1
1
1
1
1
1
1
1
1
1
1
1
1
1
1
1
1
1
1
1
1
1
1
1
1
1
1
1
1
1
1
1
1
1
1
1
1
1
1
1
1
1
1
1
1
1
1
1
1
1
1
1
1
1
1
1
1
1
1
1
1
1
1
1
1
1
1
1
1
1
1
1
1
1
1
1
1
1
1
1
1
1
1
1
1
1
1
1
1
1
1
1
1
1
1
1
1
1
1
1
1
1
1
1
1
1
1
1
1
1
1
1
1
1
1
1
1
1
1
1
1
1
1
1
1
1
1
1
1
1
1
1
1
1
1
1
1
1
1
1
1
1
1
1
1
1
1
1
1
1
1
1
1
1
1
1
1
1
1
1
1
1
1
1
1
1
1
1
1
1
1
1
1
1
1
1
1
1
1
1
1
1
1
1
1
1
1
1
1
1
1
1
1
1
1
1
1
1
1
1
1
1
1
1
1
1
1
1
1
1
1
1
1
1
1
1
1
1
1
1
1
1
1
1
1
1
1
1
1
1
1
1
1
1
1
1
1
1
1
1
1
1
1
1
1
1
1
1
1
1
1
1
1
1
1
1
1
1
1
1
1
1
1
1
1
1
1
1
1
1
1
1
1
1
1
1
1
1
1
1
1
1
1
1
1
1
1
1
1
1
1
1
1
1
1
1
1
1
1
1
1
1
1
1
1
1
1
1
1
1
1
1
1
1
1
1
1
1
1
1
1
1
1
1
1
1
1
1
1
1
1
1
1
1
1
1
1
1
1
1
1
1
1
1
1
1
1
1
1
1
1
1
1
1
1
1
1
1
1
1
1
1
1
1
1
1
1
1
1
1
1
1
1
1
1
1
1
1
1
1
1
1
1
1
1
1
1
1
1
1
1
1
1
1
1
1
1
1
1
1
1
1
1
1
1
1
1
1
1
1
1
1
1
1
1
1
1
1
1
1
1
1
1
1
1
1
1
1
1
1
1
1
1
1
1
1
1
1
1
1
1
1
1
1
1
1
1
1
1
1
1
1
1
1
1
1
1
1
1
1
1
1
1
1
1
1
1
1
1
1
1
1
1
1
1
1
1
1
1
1
1
1
1
1
1
1
1
1
1
1
1
1
1
1
1
1
1
1
1
1
1
1
1
1
1
1
1
1
1
1
1
1
1
1
1
1
1
1
1
1
1
1
1
1
1
1
1
1
1
1
1
1
1
1
1
1
1
1
1
1
1
1
1
1
1
1
1
1
1
1
1
1
1
1
1
1
1
1
1
1
1
1
1
1
1
1
1
1
1
1
1
1
1
1
1
1
1
1
1
1
1
1
1
1
1
1
1
1
1
1
1
1
1
1
1
1
1
1
1
1
1
1
1
1
1
1
1
1
1
1
1
1
1
1
1
1
1
1
1
1
1
1
1
1
1
1
1
1
1
1
1
1
1
1
1
1
1
1
1
1
1
1
1
1
1
1
1
1
1
1
1
1
1
1
1
1
1
1
1
1
1
1
1
1
1
1
1
1
1
1
1
1
1
1
1
1
1
1
1
1
1
1
1
1
1
1
1
1
1
1
1
1
1
1
1
1
1
1
1
1
1
1
1
1
1
1
1
1
1
1
1
1
1
1
1
1
1
1
1
1
1
1
1
1
1
1
1
1

SCALARS density double 1
LOOKUP_TABLE default
1.002482
1.002461
1.002435
1.002420
1.002389
1.002385
1.002365
1.002332
1.002313
1.002298
1.002274
1.002249
1.002220
1.002189
1.002159
1.002125
1.002091
1.002060
1.002025
1.001983
1.001938
1.001890
1.001838
1.001787
1.001746
1.001708
1.001665
1.001610
1.001530
1.001409
1.001241
1.001026
1.000766
1.000467
1.000148
0.999825
0.999511
0.999221
0.998971
0.998768
0.998613
0.998505
0.998438
0.998396
0.998367
0.998342
0.998310
0.998262
0.998205
0.998144
0.998079
0.998015
0.997958
0.997909
0.997865
0.997826
0.997796
0.997771
0.997752
0.997738
0.997725
0.997720
0.997710
0.997686
0.997671
0.997670
0.997641
0.997625
0.997599
0.997578
1.002445
1.002432
1.002408
1.002401
1.002363
1.002355
1.002342
1.002314
1.002291
1.002272
1.002246
1.002222
1.002199
1.002169
1.002138
1.002107
1.002075
1.002038
1.002002
1.001966
1.001925
1.001879
1.001835
1.001792
1.001746
1.001702
1.001655
1.001591
1.001500
1.001377
1.001213
1.001000
1.000744
1.000458
1.000148
0.999829
0.999524
0.999245
0.998999
0.998796
0.998645
0.998535
0.998457
0.998407
0.998373
0.998339
0.998300
0.998257
0.998207
0.998149
0.998090
0.998035
0.997981
0.997929
0.997887
0.997852
0.997820
0.997796
0.997781
0.997767
0.997752
0.997742
0.997728
0.997706
0.997698
0.997693
0.997657
0.997651
0.997627
0.997615
1.002394
1.002375
1.002352
1.002343
1.002335
1.002307
1.002284
1.002276
1.002251
1.002222
1.002199
1.002178
1.002156
1.002132
1.002104
1.002073
1.002040
1.002003
1.001968
1.001934
1.001899
1.001862
1.001824
1.001785
1.001741
1.001693
1.001639
1.001570
1.001477
1.001352
1.001188
1.000980
1.000731
1.000450
1.000147
0.999837
0.999537
0.999261
0.999021
0.998823
0.998670
0.998558
0.998478
0.998422
0.998380
0.998341
0.998302
0.998261
0.998215
0.998165
0.998114
0.998065
0.998015
0.997968
0.997926
0.997890
0.997863
0.997843
0.997827
0.997814
0.997802
0.997782
0.997765
0.997763
0.997743
0.997718
0.997711
0.997704
0.997682
0.997664
1.002315
1.002306
1.002291
1.002267
1.002261
1.002245
1.002225
1.002211
1.002186
1.002164
1.002146
1.002123
1.002098
1.002078
1.002056
1.002026
1.001993
1.001961
1.001928
1.001892
1.001863
1.001835
1.001802
1.001765
1.001727
1.001680
1.001619
1.001544
1.001449
1.001321
1.001154
1.000953
1.000714
1.000438
1.000144
0.999847
0.999556
0.999285
0.999053
0.998861
0.998704
0.998588
0.998506
0.998442
0.998390
0.998351
0.998314
0.998272
0.998230
0.998192
0.998149
0.998101
0.998057
0.998017
0.997978
0.997945
0.997922
0.997905
0.997886
0.997872
0.997862
0.997847
0.997828
0.997819
0.997802
0.997789
0.997785
0.997761
0.997747
0.997739
1.002213
1.002204
1.002212
1.002189
1.002168
1.002167
1.002158
1.002134
1.002116
1.002099
1.002076
1.002056
1.002040
1.002022
1.002000
1.001974
1.001941
1.001906
1.001874
1.001845
1.001820
1.001798
1.001774
1.001744
1.001705
1.001654
1.001590
1.001509
1.001406
1.001277
1.001116
1.000919
1.000687
1.000426
1.000145
0.999857
0.999578
0.999321
0.999094
0.998905
0.998753
0.998634
0.998542
0.998472
0.998415
0.998368
0.998326
0.998289
0.998256
0.998222
0.998187
0.998150
0.998111
0.998072
0.998037
0.998009
0.997985
0.997969
0.997959
0.997945
0.997928
0.997918
0.997905
0.997885
0.997877
0.997877
0.997859
0.997837
0.997845
0.997838
1.002120
1.002108
1.002099
1.002096
1.002087
1.002077
1.002067
1.002055
1.002046
1.002028
1.002006
1.001991
1.001979
1.001961
1.001940
1.001917
1.001887
1.001851
1.001817
1.001793
1.001771
1.001751
1.001734
1.001711
1.001671
1.001617
1.001552
1.001466
1.001356
1.001227
1.001071
1.000879
1.000656
1.000411
1.000146
0.999870
0.999606
0.999364
0.999145
0.998959
0.998810
0.998689
0.998589
0.998511
0.998450
0.998395
0.998351
0.998319
0.998291
0.998261
0.998232
0.998203
0.998168
0.998131
0.998100
0.998076
0.998055
0.998039
0.998029
0.998019
0.998003
0.997989
0.997983
0.997973
0.997965
0.997957
0.997950
0.997947
0.997938
0.997926
1.002007
1.002005
1.001988
1.001993
1.001996
1.001984
1.001981
1.001980
1.001967
1.001952
1.001942
1.001930
1.001914
1.001901
1.001885
1.001859
1.001827
1.001794
1.001761
1.001733
1.001716
1.001704
1.001689
1.001666
1.001629
1.001575
1.001500
1.001407
1.001298
1.001167
1.001011
1.000831
1.000624
1.000391
1.000142
0.999890
0.999642
0.999409
0.999205
0.999029
0.998878
0.998754
0.998652
0.998565
0.998491
0.998433
0.998389
0.998354
0.998327
0.998307
0.998286
0.998258
0.998227
0.998198
0.998168
0.998142
0.998126
0.998113
0.998098
0.998089
0.998083
0.998069
0.998058
0.998058
0.998057
0.998046
0.998049
0.998056
0.998040
0.998036
1.001877
1.001888
1.001897
1.001896
1.001893
1.001895
1.001900
1.001897
1.001889
1.001883
1.001877
1.001864
1.001852
1.001842
1.001826
1.001800
1.001767
1.001734
1.001702
1.001673
1.001657
1.001649
1.001636
1.001613
1.001577
1.001521
1.001440
1.001342
1.001231
1.001099
1.000946
1.000776
1.000584
1.000367
1.000139
0.999909
0.999680
0.999463
0.999272
0.999104
0.998955
0.998828
0.998721
0.998626
0.998544
0.998481
0.998434
0.998398
0.998374
0.998360
0.998342
0.998318
0.998292
0.998266
0.998237
0.998213
0.998197
0.998185
0.998173
0.998161
0.998154
0.998149
0.998142
0.998139
0.998144
0.998148
0.998147
0.998146
0.998155
0.998166
1.001771
1.001787
1.001801
1.001798
1.001803
1.001814
1.001814
1.001812
1.001818
1.001817
1.001806
1.001799
1.001795
1.001782
1.001762
1.001740
1.001709
1.001671
1.001638
1.001616
1.001599
1.001587
1.001578
1.001559
1.001517
1.001455
1.001374
1.001272
1.001151
1.001021
1.000878
1.000715
1.000535
1.000344
1.000138
0.999924
0.999717
0.999525
0.999344
0.999181
0.999041
0.998914
0.998796
0.998694
0.998609
0.998537
0.998483
0.998451
0.998431
0.998414
0.998400
0.998386
0.998363
0.998335
0.998311
0.998292
0.998271
0.998256
0.998249
0.998239
0.998226
0.998223
0.998227
0.998224
0.998225
0.998238
0.998245
0.998243
0.998258
0.998274
1.001688
1.001702
1.001709
1.001716
1.001727
1.001730
1.001733
1.001740
1.001746
1.001744
1.001741
1.001738
1.001731
1.001718
1.001699
1.001676
1.001645
1.001609
1.001576
1.001552
1.001537
1.001525
1.001515
1.001494
1.001451
1.001386
1.001299
1.001193
1.001070
1.000940
1.000802
1.000650
1.000486
1.000314
1.000131
0.999942
0.999758
0.999583
0.999418
0.999265
0.999128
0.998999
0.998878
0.998769
0.998676
0.998600
0.998544
0.998510
0.998490
0.998477
0.998468
0.998455
0.998436
0.998413
0.998391
0.998370
0.998351
0.998335
0.998322
0.998313
0.998306
0.998299
0.998301
0.998307
0.998311
0.998315
0.998328
0.998338
0.998346
0.998360
1.001620
1.001632
1.001640
1.001652
1.001656
1.001655
1.001665
1.001673
1.001671
1.001674
1.001680
1.001675
1.001662
1.001652
1.001637
1.001608
1.001575
1.001546
1.001515
1.001486
1.001471
1.001464
1.001450
1.001422
1.001381
1.001315
1.001219
1.001108
1.000989
1.000858
1.000719
1.000582
1.000439
1.000281
1.000120
0.999962
0.999799
0.999638
0.999492
0.999353
0.999214
0.999083
0.998964
0.998849
0.998745
0.998667
0.998612
0.998572
0.998551
0.998546
0.998539
0.998526
0.998512
0.998497
0.998474
0.998450
0.998434
0.998418
0.998398
0.998385
0.998382
0.998377
0.998372
0.998378
0.998388
0.998388
0.998396
0.998409
0.998419
0.998434
1.001572
1.001585
1.001593
1.001596
1.001599
1.001602
1.001605
1.001605
1.001609
1.001615
1.001614
1.001609
1.001601
1.001586
1.001566
1.001540
1.001509
1.001477
1.001448
1.001425
1.001408
1.001397
1.001382
1.001355
1.001308
1.001236
1.001141
1.001027
1.000903
1.000774
1.000644
1.000515
1.000385
1.000251
1.000114
0.999975
0.999835
0.999697
0.999563
0.999431
0.999299
0.999170
0.999043
0.998924
0.998820
0.998736
0.998675
0.998639
0.998620
0.998613
0.998609
0.998604
0.998594
0.998577
0.998558
0.998538
0.998515
0.998493
0.998476
0.998460
0.998447
0.998444
0.998443
0.998440
0.998443
0.998449
0.998455
0.998460
0.998471
0.998486
1.001547
1.001558
1.001562
1.001560
1.001560
1.001561
1.001555
1.001552
1.001558
1.001560
1.001553
1.001549
1.001542
1.001521
1.001495
1.001471
1.001444
1.001410
1.001382
1.001365
1.001348
1.001331
1.001315
1.001289
1.001236
1.001159
1.001066
1.000951
1.000820
1.000695
1.000575
1.000452
1.000332
1.000222
1.000108
0.999985
0.999868
0.999753
0.999628
0.999501
0.999378
0.999250
0.999116
0.998994
0.998892
0.998802
0.998737
0.998704
0.998688
0.998678
0.998677
0.998679
0.998672
0.998656
0.998641
0.998622
0.998594
0.998565
0.998546
0.998527
0.998508
0.998500
0.998498
0.998492
0.998488
0.998490
0.998494
0.998496
0.998502
0.998515
1.001543
1.001545
1.001545
1.001545
1.001538
1.001529
1.001522
1.001518
1.001513
1.001509
1.001507
1.001498
1.001480
1.001460
1.001435
1.001405
1.001376
1.001351
1.001327
1.001305
1.001290
1.001277
1.001256
1.001222
1.001171
1.001095
1.000993
1.000877
1.000753
1.000626
1.000505
1.000395
1.000292
1.000192
1.000095
1.000000
0.999900
0.999794
0.999685
0.999570
0.999444
0.999313
0.999184
0.999060
0.998948
0.998861
0.998800
0.998761
0.998742
0.998740
0.998743
0.998742
0.998741
0.998735
0.998717
0.998692
0.998666
0.998637
0.998604
0.998579
0.998563
0.998547
0.998534
0.998528
0.998522
0.998514
0.998511
0.998516
0.998517
0.998521
1.001551
1.001548
1.001543
1.001540
1.001528
1.001512
1.001501
1.001493
1.001480
1.001472
1.001467
1.001453
1.001428
1.001404
1.001379
1.001347
1.001317
1.001297
1.001279
1.001258
1.001243
1.001231
1.001206
1.001166
1.001114
1.001038
1.000932
1.000814
1.000694
1.000568
1.000446
1.000345
1.000255
1.000165
1.000085
1.000011
0.999926
0.999831
0.999734
0.999626
0.999498
0.999366
0.999239
0.999111
0.998995
0.998909
0.998849
0.998808
0.998789
0.998790
0.998795
0.998797
0.998800
0.998798
0.998781
0.998755
0.998727
0.998693
0.998655
0.998624
0.998602
0.998581
0.998563
0.998550
0.998538
0.998527
0.998519
0.998518
0.998516
0.998516
1.001560
1.001560
1.001552
1.001538
1.001524
1.001510
1.001489
1.001470
1.001459
1.001447
1.001429
1.001411
1.001390
1.001359
1.001324
1.001299
1.001276
1.001253
1.001238
1.001228
1.001213
1.001191
1.001167
1.001130
1.001067
1.000985
1.000886
1.000768
1.000637
1.000515
1.000405
1.000302
1.000215
1.000147
1.000082
1.000013
0.999945
0.999870
0.999774
0.999663
0.999545
0.999414
0.999274
0.999146
0.999038
0.998946
0.998878
0.998843
0.998828
0.998821
0.998827
0.998841
0.998846
0.998840
0.998831
0.998811
0.998774
0.998733
0.998698
0.998663
0.998628
0.998604
0.998586
0.998563
0.998542
0.998531
0.998520
0.998508
0.998503
0.998504
1.001577
1.001571
1.001559
1.001542
1.001524
1.001504
1.001480
1.001457
1.001440
1.001424
1.001402
1.001378
1.001354
1.001322
1.001287
1.001262
1.001244
1.001227
1.001215
1.001209
1.001195
1.001171
1.001141
1.001100
1.001033
1.000945
1.000845
1.000726
1.000595
1.000472
1.000364
1.000265
1.000185
1.000128
1.000076
1.000020
0.999964
0.999898
0.999808
0.999699
0.999581
0.999447
0.999305
0.999175
0.999064
0.998970
0.998901
0.998864
0.998845
0.998838
0.998847
0.998861
0.998869
0.998871
0.998864
0.998843
0.998808
0.998768
0.998728
0.998689
0.998652
0.998624
0.998598
0.998572
0.998549
0.998530
0.998514
0.998502
0.998491
0.998484
1.001591
1.001573
1.001558
1.001545
1.001521
1.001492
1.001471
1.001449
1.001421
1.001398
1.001382
1.001355
1.001320
1.001291
1.001266
1.001238
1.001220
1.001217
1.001214
1.001200
1.001187
1.001169
1.001129
1.001072
1.001008
1.000921
1.000806
1.000684
1.000564
1.000437
1.000319
1.000233
1.000167
1.000107
1.000064
1.000032
0.999984
0.999916
0.999838
0.999739
0.999608
0.999468
0.999335
0.999201
0.999076
0.998984
0.998920
0.998870
0.998843
0.998844
0.998852
0.998859
0.998874
0.998887
0.998879
0.998856
0.998831
0.998795
0.998748
0.998707
0.998676
0.998642
0.998607
0.998582
0.998560
0.998533
0.998511
0.998499
0.998486
0.998469
1.001586
1.001571
1.001554
1.001532
1.001509
1.001483
1.001456
1.001432
1.001407
1.001381
1.001357
1.001332
1.001301
1.001271
1.001247
1.001229
1.001218
1.001217
1.001218
1.001211
1.001195
1.001169
1.001124
1.001061
1.000985
1.000892
1.000778
1.000652
1.000526
1.000402
1.000289
1.000202
1.000139
1.000093
1.000061
1.000036
0.999998
0.999942
0.999866
0.999764
0.999636
0.999497
0.999355
0.999216
0.999094
0.998997
0.998922
0.998869
0.998842
0.998833
0.998836
0.998850
0.998867
0.998877
0.998877
0.998865
0.998840
0.998804
0.998766
0.998729
0.998691
0.998657
0.998627
0.998598
0.998569
0.998545
0.998524
0.998501
0.998485
0.998472
1.001567
1.001555
1.001536
1.001508
1.001487
1.001468
1.001438
1.001408
1.001389
1.001366
1.001334
1.001308
1.001288
1.001260
1.001234
1.001227
1.001229
1.001226
1.001228
1.001232
1.001214
1.001171
1.001123
1.001060
1.000967
1.000861
1.000754
1.000627
1.000486
1.000365
1.000265
1.000173
1.000108
1.000081
1.000062
1.000034
1.000009
0.999972
0.999892
0.999783
0.999666
0.999527
0.999370
0.999230
0.999115
0.999006
0.998918
0.998868
0.998836
0.998812
0.998812
0.998832
0.998846
0.998854
0.998865
0.998862
0.998837
0.998807
0.998781
0.998746
0.998706
0.998677
0.998651
0.998620
0.998589
0.998569
0.998547
0.998520
0.998501
0.998487
1.001540
1.001517
1.001497
1.001481
1.001457
1.001433
1.001414
1.001392
1.001365
1.001341
1.001319
1.001293
1.001268
1.001251
1.001238
1.001231
1.001235
1.001247
1.001252
1.001247
1.001229
1.001188
1.001125
1.001046
1.000953
1.000843
1.000721
1.000592
1.000461
1.000335
1.000228
1.000147
1.000093
1.000064
1.000051
1.000044
1.000025
0.999984
0.999914
0.999815
0.999688
0.999542
0.999395
0.999254
0.999123
0.999014
0.998930
0.998865
0.998818
0.998797
0.998795
0.998800
0.998816
0.998836
0.998845
0.998840
0.998832
0.998815
0.998785
0.998755
0.998731
0.998703
0.998670
0.998647
0.998627
0.998601
0.998575
0.998559
0.998540
0.998513
1.001488
1.001464
1.001448
1.001437
1.001416
1.001394
1.001381
1.001367
1.001340
1.001316
1.001300
1.001279
1.001254
1.001243
1.001244
1.001242
1.001246
1.001267
1.001278
1.001264
1.001240
1.001202
1.001128
1.001031
1.000936
1.000826
1.000689
1.000557
1.000436
1.000309
1.000193
1.000123
1.000080
1.000047
1.000040
1.000052
1.000038
0.999993
0.999934
0.999843
0.999706
0.999560
0.999422
0.999276
0.999136
0.999029
0.998944
0.998863
0.998809
0.998787
0.998775
0.998771
0.998789
0.998811
0.998819
0.998821
0.998824
0.998813
0.998790
0.998770
0.998752
0.998727
0.998701
0.998684
0.998667
0.998645
0.998623
0.998608
0.998590
0.998567
1.001412
1.001405
1.001391
1.001371
1.001363
1.001359
1.001342
1.001326
1.001317
1.001299
1.001273
1.001259
1.001252
1.001242
1.001239
1.001254
1.001270
1.001279
1.001289
1.001288
1.001255
1.001196
1.001123
1.001029
1.000912
1.000791
1.000668
1.000534
1.000397
1.000278
1.000180
1.000099
1.000051
1.000040
1.000043
1.000043
1.000040
1.000017
0.999951
0.999850
0.999730
0.999592
0.999437
0.999293
0.999169
0.999053
0.998948
0.998874
0.998820
0.998775
0.998753
0.998759
0.998769
0.998776
0.998794
0.998811
0.998809
0.998802
0.998801
0.998791
0.998767
0.998752
0.998745
0.998726
0.998707
0.998700
0.998690
0.998667
0.998649
0.998643
1.001332
1.001327
1.001317
1.001307
1.001304
1.001305
1.001299
1.001290
1.001284
1.001273
1.001254
1.001242
1.001242
1.001242
1.001244
1.001262
1.001286
1.001295
1.001298
1.001296
1.001262
1.001191
1.001110
1.001015
1.000891
1.000759
1.000639
1.000508
1.000367
1.000250
1.000160
1.000080
1.000031
1.000029
1.000039
1.000039
1.000043
1.000028
0.999963
0.999863
0.999751
0.999614
0.999459
0.999320
0.999199
0.999076
0.998970
0.998894
0.998830
0.998775
0.998750
0.998748
0.998747
0.998756
0.998776
0.998791
0.998796
0.998803
0.998807
0.998801
0.998793
0.998787
0.998779
0.998771
0.998766
0.998760
0.998752
0.998743
0.998732
0.998721
1.001249
1.001233
1.001232
1.001244
1.001242
1.001239
1.001252
1.001259
1.001245
1.001236
1.001239
1.001232
1.001222
1.001237
1.001259
1.001268
1.001284
1.001309
1.001313
1.001286
1.001250
1.001193
1.001095
1.000979
1.000868
1.000743
1.000600
1.000469
1.000353
1.000231
1.000123
1.000062
1.000030
1.000010
1.000019
1.000048
1.000051
1.000019
0.999971
0.999892
0.999764
0.999623
0.999495
0.999358
0.999217
0.999105
0.999014
0.998917
0.998837
0.998795
0.998763
0.998734
0.998733
0.998752
0.998760
0.998767
0.998792
0.998811
0.998809
0.998813
0.998826
0.998824
0.998814
0.998821
0.998831
0.998824
0.998818
0.998826
0.998823
0.998806
1.001147
1.001149
1.001154
1.001162
1.001174
1.001187
1.001199
1.001209
1.001212
1.001209
1.001208
1.001212
1.001217
1.001230
1.001254
1.001276
1.001290
1.001305
1.001309
1.001283
1.001235
1.001172
1.001077
1.000956
1.000836
1.000713
1.000574
1.000440
1.000323
1.000209
1.000106
1.000043
1.000014
1.000000
1.000012
1.000041
1.000048
1.000024
0.999980
0.999900
0.999780
0.999651
0.999522
0.999386
0.999255
0.999146
0.999044
0.998946
0.998871
0.998816
0.998769
0.998742
0.998737
0.998739
0.998746
0.998767
0.998790
0.998806
0.998824
0.998842
0.998849
0.998855
0.998868
0.998876
0.998880
0.998893
0.998902
0.998901
0.998903
0.998909
1.001049
1.001070
1.001078
1.001080
1.001106
1.001137
1.001145
1.001153
1.001174
1.001182
1.001173
1.001183
1.001211
1.001224
1.001237
1.001273
1.001299
1.001294
1.001287
1.001277
1.001224
1.001135
1.001048
1.000944
1.000804
1.000667
1.000552
1.000423
1.000283
1.000179
1.000103
1.000026
0.999982
0.999995
1.000016
1.000021
1.000037
1.000042
0.999987
0.999895
0.999804
0.999688
0.999540
0.999412
0.999308
0.999187
0.999067
0.998986
0.998915
0.998834
0.998782
0.998766
0.998747
0.998730
0.998748
0.998776
0.998789
0.998810
0.998849
0.998871
0.998877
0.998896
0.998920
0.998929
0.998936
0.998959
0.998978
0.998978
0.998982
0.998999
1.000978
1.000982
1.000996
1.001025
1.001046
1.001065
1.001093
1.001114
1.001121
1.001134
1.001150
1.001160
1.001178
1.001210
1.001237
1.001257
1.001280
1.001289
1.001273
1.001244
1.001197
1.001118
1.001015
1.000904
1.000780
1.000643
1.000513
1.000390
1.000267
1.000157
1.000073
1.000011
0.999977
0.999978
0.999998
1.000022
1.000039
1.000033
0.999991
0.999919
0.999822
0.999702
0.999577
0.999458
0.999338
0.999221
0.999121
0.999028
0.998938
0.998869
0.998822
0.998780
0.998752
0.998752
0.998762
0.998772
0.998802
0.998843
0.998869
0.998892
0.998926
0.998949
0.998957
0.998980
0.999008
0.999018
0.999029
0.999056
0.999068
0.999066
1.000907
1.000908
1.000931
1.000968
1.000988
1.001003
1.001038
1.001066
1.001070
1.001082
1.001114
1.001134
1.001145
1.001183
1.001228
1.001243
1.001250
1.001269
1.001260
1.001207
1.001155
1.001096
1.000988
1.000857
1.000747
1.000626
1.000475
1.000348
1.000253
1.000141
1.000037
0.999994
0.999979
0.999959
0.999976
1.000028
1.000043
1.000019
0.999998
0.999948
0.999836
0.999718
0.999622
0.999502
0.999365
0.999265
0.999176
0.999064
0.998970
0.998916
0.998858
0.998798
0.998777
0.998780
0.998774
0.998786
0.998830
0.998871
0.998896
0.998933
0.998975
0.998996
0.999011
0.999036
0.999062
0.999075
0.999090
0.999114
0.999131
0.999136
1.000833
1.000867
1.000887
1.000897
1.000930
1.000967
1.000978
1.000992
1.001026
1.001045
1.001054
1.001088
1.001131
1.001155
1.001185
1.001225
1.001239
1.001227
1.001215
1.001187
1.001121
1.001039
1.000952
1.000839
1.000705
1.000578
1.000458
1.000329
1.000209
1.000114
1.000037
0.999976
0.999948