# vtk DataFile Version 3.0
SiWiRVisFile
ASCII
DATASET UNSTRUCTURED_GRID
POINTS 1600 DOUBLE
76.9311 100 73.944
78.1349 100 74.3224
79.1296 100 74.7998
80.924 100 74.7911
81.9808 100 75.1945
83.0597 100 75.4191
84.556 100 75.3189
85.6477 100 75.6349
86.8227 100 75.6387
85.7886 100 74.5327
90.2265 100 75.6949
91.1531 100 74.8315
89.7921 100 74.301
90.1384 100 72.9424
89.4751 100 71.8932
92.3891 100 67.3343
93.6636 100 67.8003
95.5398 100 66.8087
94.0132 100 64.1633
97.4532 100 65.6126
104.235 100 53.703
103.83 100 56.1193
104.637 100 55.3324
106.247 100 54.2679
105.196 100 54.2548
107.319 100 54.2392
109.564 100 50.7224
110.56 100 50.2913
110.386 100 51.5724
111.504 100 51.0083
112.989 100 51.0076
114.106 100 51.5726
113.932 100 50.2914
114.929 100 50.7224
117.173 100 54.2392
119.297 100 54.2549
118.245 100 54.2679
119.856 100 55.3324
120.662 100 56.1193
120.258 100 53.703
127.038 100 65.6136
130.479 100 64.1633
128.953 100 66.8089
130.829 100 67.8004
132.103 100 67.3342
135.018 100 71.8931
134.354 100 72.9425
134.7 100 74.3006
133.34 100 74.8318
134.266 100 75.6946
138.704 100 74.5326
137.67 100 75.6387
138.845 100 75.6349
139.936 100 75.3189
141.433 100 75.4191
142.512 100 75.1945
143.568 100 74.791
145.363 100 74.7998
146.358 100 74.3224
147.561 100 73.944
77.096 100 75.071
78.1705 100 75.3949
80.035 100 75.381
81.0741 100 75.9612
82.0882 100 76.3293
83.856 100 76.1311
84.8972 100 76.5116
86.0501 100 76.7477
87.1592 100 76.795
88.2818 100 77.2864
89.3493 100 76.7917
92.2426 100 75.2232
91.2673 100 73.7082
91.7462 100 72.3159
92.4839 100 71.2185
90.6854 100 72.0534
94.7896 100 67.6628
96.5308 100 66.3664
97.4756 100 67.2934
100.017 100 66.4379
103.795 100 54.6136
99.5321 100 60.1311
104.699 100 61.3166
110.018 100 54.5401
106.204 100 53.1557
108.132 100 55.3221
108.507 100 54.2373
109.459 100 53.5228
109.416 100 52.0313
111.417 100 52.1599
113.076 100 52.1613
115.077 100 52.0309
115.033 100 53.5228
115.985 100 54.2374
116.36 100 55.3221
118.288 100 53.1557
114.474 100 54.5396
119.792 100 61.3169
124.96 100 60.1311
120.697 100 54.6136
124.476 100 66.4364
127.017 100 67.2929
127.961 100 66.366
129.703 100 67.663
133.807 100 72.0534
132.009 100 71.2173
132.746 100 72.3159
133.225 100 73.7084
132.25 100 75.2231
135.143 100 76.7918
136.211 100 77.2864
137.333 100 76.795
138.442 100 76.7477
139.595 100 76.5116
140.636 100 76.1311
142.404 100 76.3293
143.418 100 75.9612
144.457 100 75.381
146.322 100 75.3949
147.396 100 75.071
77.3334 100 76.112
78.2712 100 76.6255
79.1733 100 75.9868
80.1627 100 76.5328
81.3167 100 77.027
83.1925 100 76.9144
84.218 100 77.3609
85.2432 100 77.5763
86.4479 100 77.7947
87.5802 100 78.1437
88.9467 100 78.2004
90.1502 100 78.2617
91.165 100 77.7605
92.2555 100 74.1189
93.6621 100 71.5607
94.3217 100 70.6038
94.6871 100 68.8733
95.705 100 68.3879
96.4514 100 67.4544
98.729 100 66.414
100.428 100 65.3173
103.615 100 62.3922
105.753 100 61.9507
106.974 100 61.693
106.341 100 58.3684
107.104 100 60.3496
107.701 100 59.3732
105.884 100 60.05
110.564 100 53.5627
111.589 100 53.2834
112.903 100 53.285
113.929 100 53.5621
118.606 100 60.0382
116.789 100 59.3717
117.39 100 60.3472
118.152 100 58.369
117.522 100 61.6976
118.74 100 61.9516
120.878 100 62.394
124.064 100 65.3179
125.768 100 66.4108
128.041 100 67.4552
128.787 100 68.3874
129.806 100 68.8734
130.17 100 70.6043
130.83 100 71.5606
132.236 100 74.1188
133.327 100 77.7606
134.342 100 78.2616
135.546 100 78.2004
136.912 100 78.1437
138.044 100 77.7947
139.249 100 77.5763
140.274 100 77.3609
141.3 100 76.9144
143.176 100 77.027
144.33 100 76.5328
145.319 100 75.9868
146.221 100 76.6255
147.159 100 76.112
77.4355 100 77.3164
78.3565 100 77.9299
79.2235 100 77.2179
80.3974 100 77.6873
82.2669 100 77.5282
83.2729 100 77.9971
84.3209 100 78.5063
85.4889 100 78.6603
86.639 100 78.9674
88.0082 100 79.1604
89.0542 100 79.372
90.1596 100 79.5659
91.0965 100 78.8711
93.1648 100 73.3203
92.8378 100 72.2486
95.1457 100 72.1167
95.3149 100 70.9707
95.4072 100 69.8021
96.2903 100 69.2466
97.3402 100 68.442
98.5221 100 68.0947
101.074 100 66.9634
104.727 100 62.5513
105.336 100 64.3117
105.422 100 63.2486
106.497 100 62.7625
108.917 100 62.6257
110.268 100 62.3404
108.759 100 60.4541
111.32 100 54.5186
113.171 100 54.5184
115.736 100 60.4575
114.221 100 62.3401
115.569 100 62.625
117.998 100 62.7612
119.071 100 63.2535
119.158 100 64.3124
119.764 100 62.553
123.42 100 66.963
125.97 100 68.0949
127.15 100 68.4411
128.201 100 69.2457
129.084 100 69.8014
129.177 100 70.9702
129.349 100 72.1153
131.655 100 72.2484
131.328 100 73.3202
133.395 100 78.8712
134.332 100 79.5658
135.438 100 79.372
136.484 100 79.1605
137.853 100 78.9676
139.003 100 78.6603
140.171 100 78.5063
141.219 100 77.9972
142.226 100 77.5282
144.095 100 77.6873
145.269 100 77.2179
146.136 100 77.9299
147.057 100 77.3164
77.3962 100 78.44
78.3035 100 79.0173
79.2935 100 78.5497
81.3534 100 78.2185
82.386 100 78.7104
83.4863 100 79.087
84.5794 100 79.5676
85.5567 100 79.7519
87.2597 100 79.9276
88.3365 100 80.2248
89.173 100 81.0211
91.1745 100 80.1525
92.1112 100 78.4611
94.0725 100 74.07
94.119 100 72.6276
96.0342 100 72.6744
96.4014 100 71.5711
96.3339 100 70.4898
97.3403 100 69.6332
98.3682 100 69.1644
99.3703 100 67.3021
102.617 100 67.5595
106.368 100 64.0377
107.327 100 63.4046
107.711 100 62.3782
108.308 100 63.8393
109.643 100 63.6216
110.589 100 64.0607
108.145 100 61.4012
111.46 100 55.8325
113.032 100 55.8318
116.339 100 61.4033
113.905 100 64.0605
114.851 100 63.6221
116.184 100 63.8321
116.785 100 62.3818
117.17 100 63.4086
118.124 100 64.0412
121.877 100 67.5587
125.122 100 67.3009
126.124 100 69.1637
127.152 100 69.6335
128.158 100 70.4897
128.09 100 71.5716
128.462 100 72.6744
130.374 100 72.6289
130.422 100 74.0729
132.381 100 78.4611
133.317 100 80.1523
135.32 100 81.0207
136.156 100 80.2248
137.233 100 79.9276
138.936 100 79.7519
139.913 100 79.5675
141.006 100 79.087
142.106 100 78.7104
143.139 100 78.2185
145.199 100 78.5497
146.189 100 79.0173
147.096 100 78.44
77.2067 100 79.5378
78.2639 100 80.2108
79.3559 100 79.6533
80.4384 100 78.7644
81.4807 100 79.331
82.4749 100 79.8174
83.6066 100 80.2033
84.7022 100 80.6311
85.8332 100 80.802
87.0187 100 81.0504
88.1349 100 81.2875
90.2456 100 80.7092
92.1681 100 80.6889
93.0244 100 77.6933
93.8132 100 76.6447
95.0995 100 73.272
97.3268 100 72.9873
97.4728 100 71.9103
97.7551 100 70.8317
99.6126 100 70.1175
99.3855 100 68.9002
101.539 100 67.8527
103.747 100 67.2152
105.337 100 66.589
105.407 100 65.5452
107.427 100 64.5322
108.449 100 64.9847
109.508 100 64.7967
111.613 100 64.7286
111.153 100 62.9241
113.347 100 62.9206
112.878 100 64.7263
114.983 100 64.7974
116.043 100 64.9801
117.063 100 64.5309
119.077 100 65.5422
119.156 100 66.5788
120.745 100 67.2105
122.954 100 67.8517
125.107 100 68.9021
124.88 100 70.1164
126.74 100 70.8324
127.017 100 71.9028
127.168 100 72.9853
129.397 100 73.2703
130.679 100 76.645
131.468 100 77.6938
132.325 100 80.6883
134.247 100 80.7089
136.358 100 81.2875
137.474 100 81.0506
138.659 100 80.8019
139.79 100 80.631
140.886 100 80.2033
142.017 100 79.8175
143.012 100 79.331
144.054 100 78.7644
145.136 100 79.6533
146.229 100 80.2108
147.286 100 79.5378
77.1501 100 80.652
77.9041 100 81.4022
79.4915 100 80.8047
80.4803 100 79.8765
81.4884 100 80.502
82.4886 100 80.9844
83.9543 100 81.3689
85.1967 100 81.7686
86.248 100 82.0262
87.3331 100 82.1166
88.6982 100 82.2554
91.2426 100 81.2368
92.1785 100 81.8647
93.7526 100 78.5275
95.6957 100 75.9888
96.3933 100 73.6283
97.6715 100 74.6936
98.4778 100 72.4201
98.8448 100 71.15
100.451 100 69.416
100.451 100 68.2965
102.586 100 68.8003
104.861 100 67.7071
106.775 100 66.1046
107.887 100 65.9449
109.241 100 65.9568
109.86 100 67.1814
110.512 100 65.1711
109.43 100 68.5167
110.475 100 68.7441
114.043 100 68.7505
115.099 100 68.529
113.979 100 65.1715
114.623 100 67.1801
115.237 100 65.9753
116.607 100 65.9377
117.713 100 66.0977
119.63 100 67.7076
121.905 100 68.8001
124.042 100 68.2964
124.04 100 69.4163
125.648 100 71.1512
126.016 100 72.4209
126.818 100 74.7041
128.094 100 73.6245
128.798 100 75.9887
130.74 100 78.5285
132.315 100 81.8656
133.25 100 81.2371
135.794 100 82.2552
137.159 100 82.1167
138.244 100 82.0261
139.296 100 81.7686
140.538 100 81.3689
142.004 100 80.9845
143.004 100 80.502
144.012 100 79.8765
145.001 100 80.8047
146.588 100 81.4022
147.342 100 80.652
76.6693 100 81.8157
77.6827 100 82.4336
78.8783 100 81.8023
79.9127 100 82.1996
80.5094 100 81.1893
81.048 100 82.2824
83.1119 100 82.3773
84.2218 100 82.5236
85.4669 100 82.865
86.6535 100 82.9966
87.9467 100 83.3342
89.1837 100 83.2896
89.9323 100 81.9219
90.3175 100 83.2896
91.1773 100 83.9918
93.362 100 80.7081
96.706 100 75.6047
98.294 100 73.5924
99.5103 100 72.459
99.95 100 71.4016
100.624 100 70.5997
101.412 100 68.9327
103.731 100 68.3633
106.308 100 67.294
107.659 100 67.389
108.852 100 67.1032
108.298 100 68.3914
108.252 100 69.6394
109.716 100 69.7541
111.213 100 69.8351
113.292 100 69.7789
114.733 100 69.7858
116.154 100 69.612
116.2 100 68.325
115.644 100 67.1064
116.844 100 67.3873
118.2 100 67.3104
120.758 100 68.362
123.08 100 68.9323
123.869 100 70.5996
124.543 100 71.4005
124.982 100 72.4566
126.198 100 73.595
127.789 100 75.6056
131.13 100 80.7063
133.315 100 83.9915
134.175 100 83.2896
134.56 100 81.9226
135.309 100 83.2896
136.545 100 83.3342
137.839 100 82.9966
139.026 100 82.8648
140.271 100 82.5237
141.38 100 82.3773
143.444 100 82.2825
143.983 100 81.1894
144.58 100 82.1996
145.614 100 81.8023
146.81 100 82.4336
147.823 100 81.8157
76.7451 100 82.9753
77.8367 100 83.4949
78.6832 100 82.8483
79.4654 100 83.6241
80.7821 100 83.2853
81.6037 100 84.1115
82.5045 100 83.2691
83.5826 100 83.3757
84.68 100 83.662
85.2435 100 84.6258
86.7774 100 84.064
87.8194 100 84.4933
88.8856 100 84.3478
90.0038 100 84.2915
92.3812 100 83.9523
92.9324 100 79.628
97.1332 100 76.7774
98.0297 100 75.9954
99.4836 100 73.6736
100.664 100 73.659
102.044 100 69.7552
103.598 100 69.5036
[...]
POINT_DATA 1600
SCALARS mass double
LOOKUP_TABLE default
1
1
1
1
1
1
1
1
1
1
1
1
1
1
1
1
1
1
1
1
1
1
1
1
1
1
1
1
1
1
1
1
1
1
1
1
1
1
1
1
1
1
1
1
1
1
1
1
1
1
1
1
1
1
1
1
1
1
1
1
1
1
1
1
1
1
1
1
1
1
1
1
1
1
1
1
1
1
1
1
1
1
1
1
1
1
1
1
1
1
1
1
1
1
1
1
1
1
1
1
1
1
1
1
1
1
1
1
1
1
1
1
1
1
1
1
1
1
1
1
1
1
1
1
1
1
1
1
1
1
1
1
1
1
1
1
1
1
1
1
1
1
1
1
1
1
1
1
1
1
1
1
1
1
1
1
1
1
1
1
1
1
1
1
1
1
1
1
1
1
1
1
1
1
1
1
1
1
1
1
1
1
1
1
1
1
1
1
1
1
1
1
1
1
1
1
1
1
1
1
1
1
1
1
1
1
1
1
1
1
1
1
1
1
1
1
1
1
1
1
1
1
1
1
1
1
1
1
1
1
1
1
1
1
1
1
1
1
1
1
1
1
1
1
1
1
1
1
1
1
1
1
1
1
1
1
1
1
1
1
1
1
1
1
1
1
1
1
1
1
1
1
1
1
1
1
1
1
1
1
1
1
1
1
1
1
1
1
1
1
1
1
1
1
1
1
1
1
1
1
1
1
1
1
1
1
1
1
1
1
1
1
1
1
1
1
1
1
1
1
1
1
1
1
1
1
1
1
1
1
1
1
1
1
1
1
1
1
1
1
1
1
1
1
1
1
1
1
1
1
1
1
1
1
1
1
1
1
1
1
1
1
1
1
1
1
1
1
1
1
1
1
1
1
1
1
1
1
1
1
1
1
1
1
1
1
1
1
1
1
1
1
1
1
1
1
1
1
1
1
1
1
1
1
1
1
1
1
1
1
1
1
1
1
1
1
1
1
1
1
1
1
1
1
1
1
1
1
1
1
1
1
1
1
1
1
1
1
1
1
1
1
1
1
1
1
1
1
1
1
1
1
1
1
1
1
1
1
1
1
1
1
1
1
1
1
1
1
1
1
1
1
1
1
1
1
1
1
1
1
1
1
1
1
1
1
1
1
1
1
1
1
1
1
1
1
1
1
1
1
1
1
1
1
1
1
1
1
1
1
1
1
1
1
1
1
1
1
1
1
1
1
1
1
1
1
1
1
1
1
1
1
1
1
1
1
1
1
1
1
1
1
1
1
1
1
1
1
1
1
1
1
1
1
1
1
1
1
1
1
1
1
1
1
1
1
1
1
1
1
1
1
1
1
1
1
1
1
1
1
1
1
1
1
1
1
1
1
1
1
1
1
1
1
1
1
1
1
1
1
1
1
1
1
1
1
1
1
1
1
1
1
1
1
1
1
1
1
1
1
1
1
1
1
1
1
1
1
1
1
1
1
1
1
1
1
1
1
1
1
1
1
1
1
1
1
1
1
1
1
1
1
1
1
1
1
1
1
1
1
1
1
1
1
1
1
1
1
1
1
1
1
1
1
1
1
1
1
1
1
1
1
1
1
1
1
1
1
1
1
1
1
1
1
1
1
1
1
1
1
1
1
1
1
1
1
1
1
1
1
1
1
1
1
1
1
1
1
1
1
1
1
1
1
1
1
1
1
1
1
1
1
1
1
1
1
1
1
1
1
1
1
1
1
1
1
1
1
1
1
1
1
1
1
1
1
1
1
1
1
1
1
1
1
1
1
1
1
1
1
1
1
1
1
1
1
1
1
1
1
1
1
1
1
1
1
1
1
1
1
1
1
1
1
1
1
1
1
1
1
1
1
1
1
1
1
1
1
1
1
1
1
1
1
1
1
1
1
1
1
1
1
1
1
1
1
1
1
1
1
1
1
1
1
1
1
1
1
1
1
1
1
1
1
1
1
1
1
1
1
1
1
1
1
1
1
1
1
1
1
1
1
1
1
1
1
1
1
1
1
1
1
1
1
1
1
1
1
1
1
1
1
1
1
1
1
1
1
1
1
1
1
1
1
1
1
1
1
1
1
1
1
1
1
1
1
1
1
1
1
1
1
1
1
1
1
1
1
1
1
1
1
1
1
1
1
1
1
1
1
1
1
1
1
1
1
1
1
1
1
1
1
1
1
1
1
1
1
1
1
1
1
1
1
1
1
1
1
1
1
1
1
1
1
1
1
1
1
1
1
1
1
1
1
1
1
1
1
1
1
1
1
1
1
1
1
1
1
1
1
1
1
1
1
1
1
1
1
1
1
1
1
1
1
1
1
1
1
1
1
1
1
1
1
1
1
1
1
1
1
1
1
1
1
1
1
1
1
1
1
1
1
1
1
1
1
1
1
1
1
1
1
1
1
1
1
1
1
1
1
1
1
1
1
1
1
1
1
1
1
1
1
1
1
1
1
1
1
1
1
1
1
1
1
1
1
1
1
1
1
1
1
1
1
1
1
1
1
1
1
1
1
1
1
1
1
1
1
1
1
1
1
1
1
1
1
1
1
1
1
1
1
1
1
1
1
1
1
1
1
1
1
1
1
1
1
1
1
1
1
1
1
1
1
1
1
1
1
1
1
1
1
1
1
1
1
1
1
1
1
1
1
1
1
1
1
1
1
1
1
1
1
1
1
1
1
1
1
1
1
1
1
1
1
1
1
1
1
1
1
1
1
1
1
1
1
1
1
1
1
1
1
1
1
1
1
1
1
1
1
1
1
1
1
1
1
1
1
1
1
1
1
1
1
1
1
1
1
1
1
1
1
1
1
1
1
1
1
1
1
1
1
1
1
1
1
1
1
1
1
1
1
1
1
1
1
1
1
1
1
1
1
1
1
1
1
1
1
1
1
1
1
1
1
1
1
1
1
1
1
1
1
1
1
1
1
1
1
1
1
1
1
1
1
1
1
1
1
1
1
1
1
1
1
1
1
1
1
1
1
1
1
1
1
1
1
1
1
1
1
1
1
1
1
1
1
1
1
1
1
1
1
1
1
1
1
1
1
1
1
1
1
1
1
1
1
1
1
1
1
1
1
1
1
1
1
1
1
1
1
1
1
1
1
1
1
1
1
1
1
1
1
1
1
1
1
1
1
1
1
1
1
1
1
1
1
1
1
1
1
1
1
1
1
1
1
1
1
1
1
1
1
1
1
1
1
1
1
1
1
1
1
1
1
1
1
1
1
1
1
1
1
1
1
1
1
1
1
1
1
1
1
1
1
1
1
1
1
1
1
1
1
1
1
1
1
1
1
1
1
1
1
1
1
1
1
1
1
1
1
1
1
1
1
1
1
1
1
1
1
1
1
1
1
1
1
1
1
1
1
1
1
1
1
1
1
1
1
1
1
1
1
1
1
1
1
1
1
1
1
1
1
1
1
1
1
1
1
1
1
1
1
1
1
1
1
1
1
1
1
1
1
1
1
1
1
1
1
1
1
1
1
1
1
1
1
1
1
1
1
1
1
1
1
1
1
1
1
1
1
1
1
1
1
1
1
1
1
1
1
1
1
1
1
1
1
1
1
1
1
1
1
1
1
1
1
1
1
1
1
1
1
1
1
1
1
1
1
1
1
1
1
1
1
1
1
1
1
1
1
1
1
1
1
1
1
1
1
1
1
VECTORS force double
13.0919 0 9.07386
-26.813 0 -19.8243
-11.7845 0 5.0063
24.2139 0 -1.54415
-17.3111 0 11.1017
-14.6125 0 -2.25843
22.1689 0 -6.32996
3.71423 0 19.905
-16.3309 0 15.9854
-1.59922 0 4.9607
2.55888 0 -8.24588
1.01007 0 -0.0913612
14.3832 0 -1.18564
-23.3268 0 44.2424
18.4189 0 11.9661
9.27845 0 3.33779
-0.635384 0 0.681224
-16.3975 0 12.8906
0 0 0
-4.021 0 13.3672
40.0824 0 -86.3747
0.978787 0 -7.00241
8.68537 0 -9.51327
16.1185 0 4.79068
-44.0425 0 9.70756
35.9404 0 3.73049
-6.81635 0 24.1673
20.3041 0 12.6977
34.8291 0 -26.4171
-13.6062 0 7.09973
13.5686 0 7.45625
-34.8462 0 -26.4247
-20.2275 0 12.6609
6.78137 0 24.1822
-35.9137 0 3.72549
44.0868 0 9.71221
-16.198 0 4.79419
-8.68357 0 -9.51395
-0.978815 0 -7.00209
-40.0698 0 -86.378
3.90151 0 13.4458
0 0 0
15.584 0 12.8227
0.618327 0 0.693972
-9.27638 0 3.33803
-18.4191 0 11.968
23.3219 0 44.2272
-14.3952 0 -1.20033
-0.991887 0 -0.0816274
-2.57851 0 -8.26442
1.60116 0 4.9667
16.3322 0 15.9853
-3.72418 0 19.8998
-22.1663 0 -6.33612
14.6058 0 -2.25456
17.3158 0 11.0989
-24.2137 0 -1.54406
11.7824 0 5.00729
26.814 0 -19.8252
-13.0919 0 9.07398
4.71191 0 -35.3818
16.5624 0 33.7286
35.8845 0 18.2216
-5.90181 0 -47.234
76.1589 0 -22.2791
48.1585 0 -7.4947
21.8864 0 -23.4411
-17.7807 0 -13.8039
5.8307 0 11.5159
0.451967 0 -8.64656
-4.01973 0 7.12016
-7.45794 0 1.84116
-30.9287 0 -18.3153
4.6201 0 3.91838
1.97968 0 0.661827
4.86728 0 -43.6202
8.64309 0 14.6324
30.5089 0 -16.4177
60.4948 0 -6.92793
12.6423 0 -18.7774
-38.7847 0 87.577
0 0 0
9.2377 0 20.9942
2.94451 0 -6.60177
-1.54914 0 4.95879
-3.45327 0 -14.059
1.25958 0 -0.351405
-9.80366 0 6.96012
-16.8008 0 5.47765
-6.12356 0 -5.82445
6.10871 0 -6.09195
16.831 0 5.4601
9.87978 0 6.9309
-1.24673 0 -0.368504
3.45749 0 -14.0399
1.54486 0 4.95763
-2.90803 0 -6.4741
-9.18773 0 21.037
0 0 0
38.7744 0 87.5764
-12.8639 0 -18.9578
-60.8776 0 -7.22904
-30.009 0 -15.6255
-8.5751 0 14.6957
-4.83901 0 -43.6018
-2.17319 0 1.13913
-4.72422 0 3.92705
30.6777 0 -18.17
7.47334 0 1.83763
4.02421 0 7.13165
-0.429221 0 -8.66603
-5.82728 0 11.5164
17.7786 0 -13.8054
-21.8863 0 -23.4327
-48.145 0 -7.49173
-76.1579 0 -22.2735
5.90154 0 -47.234
-35.8827 0 18.2213
-16.5631 0 33.7284
-4.71165 0 -35.3828
-17.751 0 28.972
30.8422 0 3.74379
-32.8919 0 17.646
-13.6407 0 20.9387
-67.5942 0 43.336
-54.9359 0 26.4001
-56.525 0 0.989381
51.3909 0 11.1711
-1.40335 0 9.41957
-17.594 0 -2.47943
-2.59888 0 10.6694
-12.4911 0 11.2188
5.56975 0 3.90462
23.8309 0 -0.961004
18.4844 0 -14.2389
-26.6894 0 -9.47955
7.34536 0 -6.42361
-29.1295 0 -54.7884
-57.9092 0 40.4081
-3.34879 0 -5.42722
-3.8314 0 12.8083
5.28354 0 -3.34763
-13.4856 0 0.478197
-81.7902 0 -73.0838
1.85157 0 4.4171
-2.86949 0 8.00253
-1.97994 0 7.92087
12.0936 0 4.06366
-15.0643 0 12.2149
37.733 0 -0.533296
-37.8303 0 -0.526696
15.033 0 12.086
-12.1723 0 3.91178
2.18007 0 8.19606
2.82325 0 7.25243
-1.8126 0 4.5154
81.1663 0 -73.3053
14.1685 0 -0.493324
-5.7646 0 -3.25063
3.81249 0 12.7286
2.48889 0 -3.9552
58.4573 0 39.7365
29.5885 0 -54.395
-7.8226 0 -6.60241
27.2042 0 -9.61822
-18.489 0 -14.0544
-23.6091 0 -1.08811
-5.53688 0 3.93865
12.3498 0 11.2863
2.57729 0 10.6906
17.5764 0 -2.45611
1.39961 0 9.43717
-51.3962 0 11.1655
56.5272 0 0.983232
54.9314 0 26.4047
67.5881 0 43.3306
13.6426 0 20.9402
32.8911 0 17.6459
-30.8425 0 3.7443
17.7517 0 28.9734
-14.0832 0 -3.4661
18.0414 0 -27.1188
16.6261 0 -1.71533
-26.1919 0 -35.5817
7.27984 0 13.171
11.4475 0 16.5634
77.2115 0 -75.1099
-0.483505 0 -6.49964
-0.278096 0 -9.29073
-9.47309 0 -27.2963
29.8557 0 -4.8502
12.6055 0 -4.86874
-16.5288 0 24.8566
5.20495 0 5.72458
7.36022 0 29.7166
-36.1817 0 -27.4992
41.9648 0 17.0835
-47.6801 0 31.2324
77.0463 0 21.9179
3.56155 0 5.55416
-3.62275 0 -21.1121
-63.5966 0 -97.5363
-102.759 0 -130.152
-25.2911 0 43.9614
137.923 0 80.2831
-25.0162 0 -15.6245
-5.93565 0 9.37269
-39.3755 0 -7.13671
-8.34011 0 -1.38968
-12.6481 0 -10.8045
12.6573 0 -10.8253
7.32295 0 -2.95986
48.0857 0 -13.0704
6.03234 0 9.36312
22.6107 0 -12.9565
-135.24 0 74.8833
24.9007 0 46.9005
100.359 0 -127.945
63.8728 0 -97.8263
3.42704 0 -21.5111
-3.52313 0 5.74428
-76.7784 0 21.7277
47.7093 0 31.1512
-42.5068 0 17.1257
37.334 0 -28.1817
-7.15206 0 29.2599
-5.1206 0 5.77989
16.7208 0 24.7863
-12.2333 0 -4.96253
-29.9138 0 -4.81777
9.27389 0 -27.3808
0.293726 0 -9.32607
0.487778 0 -6.5218
-77.2093 0 -75.1297
-11.4377 0 16.5509
-7.28259 0 13.1726
26.1941 0 -35.5847
-16.6252 0 -1.71532
-18.0405 0 -27.1185
14.0833 0 -3.46639
-27.0352 0 -7.64766
7.84838 0 50.1912
22.5847 0 -22.4782
42.4258 0 -21.0104
12.2381 0 -21.2571
-77.2732 0 60.9683
-138.502 0 -44.6936
127.838 0 23.3307
-23.398 0 20.4135
6.65251 0 -5.04082
19.2096 0 2.01646
7.88345 0 -38.9605
16.2262 0 -8.74914
-0.0299512 0 -20.736
-7.24653 0 3.88669
25.1601 0 -64.9462
-14.5546 0 21.3782
6.32099 0 -35.6353
-1.83398 0 6.50961
-50.5811 0 26.1588
-4.96767 0 36.8524
14.2515 0 15.0668
30.6829 0 -24.4942
5.26096 0 28.9129
72.4001 0 96.7057
37.166 0 4.98287
-58.0238 0 -24.0855
50.5399 0 18.2836
-1.20199 0 -19.6065
2.76577 0 -11.8931
-2.76951 0 -11.904
3.82843 0 -13.934
-49.7538 0 18.0333
57.3246 0 -23.6827
-36.8902 0 5.29206
-73.8385 0 93.0982
-3.8414 0 26.1606
-29.4833 0 -23.7338
-14.5909 0 14.8636
6.2672 0 35.6079
51.5172 0 26.6681
1.58636 0 6.52189
-6.44881 0 -35.1565
14.8205 0 20.9522
-25.6542 0 -64.5535
7.51566 0 3.38389
0.109788 0 -20.7413
-16.3921 0 -8.75008
-7.49735 0 -38.8248
-19.296 0 2.11844
-6.66012 0 -5.007
23.4672 0 20.509
-127.922 0 23.3738
138.58 0 -44.7153
77.2685 0 60.9698
-12.2451 0 -21.2532
-42.4216 0 -21.0052
-22.5834 0 -22.477
-7.85137 0 50.1895
27.0361 0 -7.64455
21.9423 0 1.81829
-3.01206 0 -2.0216
-7.62153 0 8.31965
-28.198 0 38.5648
-24.0073 0 8.89482
15.7854 0 15.4941
1.31203 0 9.95655
40.7942 0 -4.94582
10.4934 0 30.4249
-11.1076 0 -3.23471
-36.8622 0 23.7644
-15.8817 0 12.8422
32.5629 0 -12.2331
-6.78501 0 -4.20086
-6.30916 0 9.4982
-10.848 0 -1.5103
-0.744341 0 9.62873
1.96145 0 -11.6396
-8.63072 0 -11.7279
-19.0855 0 10.7577
54.0951 0 -9.98561
48.6603 0 96.6351
3.14272 0 14.1605
4.29662 0 62.8439
9.76238 0 -55.9685
-9.05643 0 0.533815
-11.0554 0 2.57524
2.31564 0 -20.5494
-8.3693 0 -4.26892
19.3884 0 31.6753
-27.9007 0 37.434
8.32593 0 -4.28177
-0.868244 0 -19.7345
8.97913 0 1.61132
9.66485 0 0.990554
-10.7892 0 -63.4695
-3.22552 0 70.8774
-3.00663 0 14.8479
-48.5873 0 97.2865
-54.9067 0 -10.1259
19.2857 0 10.7034
7.40832 0 -14.7677
-1.2802 0 -5.36898
-1.83028 0 5.93651
11.0861 0 -1.04972
6.30465 0 9.50093
6.78081 0 -4.21252
-33.1323 0 -12.0331
15.8251 0 12.8112
36.8016 0 23.6773
11.1207 0 -3.28852
-10.4616 0 30.4408
-40.7278 0 -4.81849
-1.30472 0 9.95104
-15.783 0 15.4824
24.0075 0 8.89772
28.1928 0 38.5653
7.62108 0 8.32055
3.0105 0 -2.02169
-21.943 0 1.81439
-13.4704 0 -11.0754
-10.2642 0 -35.8672
-19.7047 0 -8.42709
0.496898 0 19.9516
-12.9372 0 -16.1642
16.7362 0 -6.69356
-30.5876 0 37.4661
-35.4686 0 -14.8515
-12.4261 0 -50.4644
33.163 0 5.96841
2.16998 0 0.346549
-23.6707 0 26.979
0.53199 0 -12.3825
-4.72093 0 13.1891
-13.8576 0 7.86103
24.6781 0 73.5649
-14.1982 0 -2.73173
-69.3358 0 2.24977
3.31604 0 6.77569
-14.8464 0 9.77804
0.745615 0 -4.88998
9.93903 0 -20.818
-8.04863 0 2.31232
-10.7375 0 10.8749
9.26282 0 7.50244
-10.2159 0 -4.30939
91.0376 0 9.63072
24.6474 0 8.82386
-28.4065 0 -4.09256
21.3175 0 22.2955
-17.0443 0 21.9713
18.8033 0 -0.896292
-25.382 0 8.98229
-67.6793 0 6.22544
9.2568 0 -4.89306
-9.96236 0 7.38807
12.026 0 10.2799
7.76001 0 2.23231
-10.492 0 -21.8631
-0.875508 0 -4.70703
15.1963 0 9.76038
-2.49449 0 6.71264
68.0945 0 2.49883
17.4795 0 -3.33855
-24.2673 0 74.5641
14.8994 0 8.25956
4.73747 0 13.1963
-0.584758 0 -12.4375
23.898 0 26.8225
-2.21329 0 0.421764
-33.2274 0 6.00173
12.5013 0 -50.522
35.4667 0 -14.9175
30.5001 0 37.3842
-16.7175 0 -6.70245
12.9203 0 -16.1487
-0.495167 0 19.949
19.7005 0 -8.42836
10.3201 0 -35.9138
13.4367 0 -11.0394
26.0486 0 -0.656882
-12.0068 0 -10.67
33.5229 0 -20.5766
6.14807 0 3.75351
20.1961 0 5.52158
7.69508 0 -64.9406
12.2802 0 -33.9065
40.2039 0 -26.7056
4.06366 0 -6.05732
9.58399 0 19.4357
1.81224 0 -1.06872
-0.543952 0 -5.54943
-9.7026 0 -8.02013
2.94316 0 -47.8766
-7.50507 0 8.36118
-90.4935 0 57.9662
38.0197 0 -0.518069
4.63043 0 0.168899
59.1102 0 6.57384
-37.3313 0 29.0614
29.7365 0 -47.0029
-12.8844 0 -45.2005
0.162609 0 -0.341251
5.89381 0 0.962092
12.8321 0 -13.5393
-111.288 0 -7.97451
-9.41887 0 -5.03942
9.92333 0 -4.76085
-14.3491 0 -26.8417
-20.1154 0 -0.521822
21.673 0 -0.707667
29.6753 0 -46.7398
-11.8587 0 -5.64833
9.23816 0 -1.66433
89.1487 0 -3.64624
-7.65993 0 -16.2054
-5.27905 0 1.7307
-0.172021 0 -0.669044
12.7464 0 -45.7879
-30.624 0 -47.7905
37.8367 0 29.7694
-57.6198 0 6.72391
-3.79111 0 -0.266432
-39.1224 0 -0.903841
90.3172 0 57.5733
7.40567 0 8.44981
-2.89958 0 -47.8813
9.76417 0 -8.07819
0.579023 0 -5.60888
-1.85065 0 -1.04826
-9.57201 0 19.4357
-4.03731 0 -5.97992
-40.244 0 -26.7247
-12.2765 0 -33.8697
-7.70188 0 -64.95
-20.1973 0 5.51615
-6.1642 0 3.76988
-33.539 0 -20.5678
12.0124 0 -10.6816
-26.0474 0 -0.656729
-4.13957 0 -26.5765
-28.2905 0 47.4624
32.4605 0 10.2923
0.784111 0 0.572839
-23.9034 0 59.8112
-24.878 0 -19.4544
-38.8795 0 11.402
-0.688079 0 37.4804
-8.0544 0 -14.0007
-45.7594 0 -16.1033
3.40602 0 33.487
15.7297 0 -52.5582
15.8672 0 19.8043
-28.1633 0 10.4023
-18.4149 0 12.565
4.35606 0 6.03427
12.2932 0 -17.8789
-56.5868 0 8.6872
-1.92903 0 -2.56772
-19.9678 0 -13.2785
36.0933 0 58.5167
-9.21607 0 -7.05248
-10.9504 0 -16.2774
-121.418 0 44.7358
-11.8776 0 -26.897
110.964 0 -52.2855
-5.59683 0 12.7973
-1.69236 0 -12.8324
31.757 0 -38.847
-1.64301 0 4.01598
-13.572 0 21.7665
-30.7342 0 -38.2689
2.20473 0 -12.9392
6.24541 0 12.1407
-124.601 0 -59.6539
9.95008 0 -22.1875
133.652 0 48.1239
10.6857 0 -16.3757
9.13227 0 -7.1298
-35.6664 0 59.3483
19.5113 0 -12.0076
1.72912 0 -2.42896
55.7603 0 7.26856
-12.2706 0 -18.1161
-4.24212 0 5.92249
18.4303 0 12.5791
28.0863 0 10.3585
-16.0337 0 19.7899
-15.7779 0 -53.1089
-3.52234 0 33.5871
46.168 0 -16.2364
8.09095 0 -14.1679
0.724878 0 37.4503
38.8858 0 11.4389
24.8229 0 -19.4469
23.9239 0 59.8203
-0.791777 0 0.567236
-32.4597 0 10.2867
28.2931 0 47.4775
4.13902 0 -26.5761
17.3031 0 34.8467
10.7222 0 -12.4933
-2.42519 0 -9.68225
-9.14855 0 17.9291
6.19189 0 -4.63378
35.3647 0 17.6194
-19.3316 0 2.3636
-10.1805 0 -29.3251
-4.94392 0 -0.504077
10.6738 0 -2.38202
56.0258 0 16.72
-33.6827 0 42.5447
-11.9588 0 -5.08818
-42.5137 0 9.07926
59.633 0 20.516
-15.9894 0 -12.9259
-14.1274 0 2.88398
84.3546 0 -50.7677
25.0001 0 -22.353
-1.92007 0 27.7523
0.138876 0 4.60775
-68.9213 0 -0.945046
-4.65796 0 -16.5361
66.0023 0 -10.745
7.64429 0 13.4069
-16.4776 0 25.7825
-6.81481 0 2.55022
8.55868 0 -37.2658
-10.6202 0 -18.141
-39.6196 0 3.33462
43.419 0 -0.0841652
10.868 0 -16.1854
-10.1154 0 -34.2206
0.563764 0 2.39919
17.2985 0 25.9041
-6.32854 0 14.053
-44.4823 0 -3.90296
4.55865 0 -16.278
45.1323 0 -1.78493
-0.0499616 0 4.53778
1.42314 0 27.4223
-27.1507 0 -20.4375
-84.1981 0 -50.2816
13.5015 0 3.122
17.4168 0 -11.2129
-59.9489 0 20.4093
42.9152 0 9.29731
11.9867 0 -5.09689
34.0543 0 43.0619
-56.6035 0 17.2195
-10.7719 0 -2.1731
4.9357 0 -0.467005
10.1789 0 -29.3416
19.3268 0 2.37633
-35.3036 0 17.5727
-6.18995 0 -4.63097
9.14931 0 17.9286
2.42327 0 -9.6839
-10.7234 0 -12.4919
-17.3036 0 34.8451
-31.7859 0 7.36697
2.82696 0 -36.1565
-31.953 0 -5.40524
5.2907 0 7.45421
-25.7016 0 9.70008
-11.737 0 -40.1451
96.2098 0 39.88
25.8241 0 43.9128
-2.74937 0 -4.24113
94.5963 0 -36.3485
-1.42044 0 29.4057
-4.51888 0 9.67789
-27.4378 0 -0.0920711
34.7728 0 -6.95988
-9.30184 0 53.1808
32.4143 0 -54.1156
6.04971 0 38.434
-3.772 0 -4.42022
16.1917 0 -24.9319
-32.5009 0 -113.073
17.7159 0 17.6591
43.4512 0 -9.47726
-11.2736 0 17.6403
5.98935 0 7.98013
15.3783 0 22.021
-2.20497 0 -5.71218
-19.2457 0 9.69324
58.8199 0 30.4362
-13.7224 0 51.1704
35.4545 0 20.0286
-39.8735 0 22.441
11.4274 0 51.7213
-52.4634 0 27.6748
22.5025 0 12.0274
2.69649 0 -5.05335
-13.0896 0 15.981
-6.00772 0 8.03484
11.9712 0 15.3816
-41.0156 0 -9.00407
-19.7947 0 17.0726
32.2455 0 -112.954
-17.2163 0 -25.8547
4.60322 0 -4.37663
-6.42045 0 37.5648
-32.4461 0 -54.4913
9.30781 0 53.4748
-34.5061 0 -6.94846
27.2374 0 -0.14569
4.48427 0 9.72521
1.46093 0 29.1299
-94.2265 0 -36.3834
2.72333 0 -4.24543
-25.8226 0 43.9266
-96.1281 0 39.7159
11.6347 0 -39.9973
25.677 0 9.69761
-5.29156 0 7.45288
31.9482 0 -5.40609
-2.82915 0 -36.1394
31.7874 0 7.36565
-72.5194 0 19.3061
81.3104 0 20.3851
-9.00888 0 -2.01766
16.1736 0 1.94562
9.69389 0 -0.325331
-49.4586 0 -8.6585
29.0801 0 -11.0665
-6.15388 0 -1.62291
-6.34414 0 -8.125
-75.9939 0 61.1502
-24.4341 0 -17.2658
1.74477 0 -8.00265
-13.4598 0 -24.3645
-1.59604 0 -2.09551
-49.0642 0 13.5757
33.5565 0 -15.4469
-10.0456 0 16.1261
5.08387 0 -18.1659
10.3941 0 85.6377
18.9392 0 18.3012
14.5831 0 -25.1492
-61.8401 0 -24.6476
-12.9844 0 -90.4905
35.1224 0 -9.87436
15.5837 0 21.7166
14.5335 0 7.67723
-5.15922 0 6.19779
-57.4401 0 8.42241
9.51047 0 -6.32973
-4.40878 0 3.35868
3.00959 0 2.75395
-11.3611 0 -8.55906
51.1176 0 6.11859
5.04086 0 6.1726
-16.7474 0 -0.316939
-16.0337 0 22.8282
-33.7885 0 -9.62759
12.1338 0 -89.8457
63.1912 0 -23.4072
-14.7551 0 -21.6418
-17.0979 0 14.9646
-12.2579 0 85.9496
-5.06134 0 -18.1591
9.99937 0 16.1654
-32.9878 0 -15.5563
48.7246 0 13.6776
1.54576 0 -2.0338
13.3019 0 -24.198
-1.67417 0 -7.8341
24.4249 0 -17.4228
75.8316 0 60.9139
6.44065 0 -8.30293
6.17935 0 -1.60197
-29.0729 0 -11.0937
49.5222 0 -8.63868
-9.71154 0 -0.327057
-16.1924 0 1.9502
9.01078 0 -2.01862
-81.3018 0 20.3605
72.5276 0 19.3051
-7.55925 0 -41.9722
43.4044 0 -10.5276
31.1104 0 16.1467
-6.26658 0 4.9575
-2.06939 0 12.6813
0.179504 0 20.9738
-39.9213 0 13.3368
0.677532 0 -1.909
41.7555 0 -36.1757
-54.7618 0 -52.3961
-16.7219 0 -25.7834
70.6709 0 -39.4878
-56.3555 0 -58.4346
11.4676 0 -1.41439
1.00691 0 -5.11926
-23.9139 0 2.32515
17.6309 0 -7.74921
-12.3329 0 2.10769
10.0193 0 6.92781
-4.55983 0 20.4384
6.00418 0 8.98329
8.98212 0 -3.45337
-26.5317 0 -9.21632
-29.069 0 -34.5562
-15.7341 0 14.9655
34.2946 0 -37.8546
-13.7241 0 4.70823
9.43863 0 -16.0913
36.8604 0 -42.2688
0.776464 0 -3.78483
2.90185 0 -11.4627
-30.0815 0 -39.6688
-9.54007 0 -16.4233
13.7964 0 4.78635
-34.952 0 -38.9855
18.5561 0 17.447
31.6716 0 -37.718
28.7116 0 -10.5222
-8.66777 0 -3.96028
-6.12547 0 8.59987
4.99628 0 14.3826
-9.85676 0 6.98035
12.4168 0 2.18978
-18.0147 0 -7.66781
24.1962 0 2.32908
-0.847234 0 -5.13674
-10.9033 0 -1.02122
56.8368 0 -60.9175
-71.0408 0 -39.5207
16.7252 0 -25.5309
54.5894 0 -52.2325
-41.8766 0 -36.1584
-0.713046 0 -1.97349
40.0481 0 13.3409
-0.177767 0 21.0055
2.07357 0 12.6879
6.25231 0 4.97356
-31.0953 0 16.1354
-43.4052 0 -10.5183
7.55233 0 -41.9534
-0.440611 0 -50.0914
2.3795 0 30.3277
-21.7704 0 -3.41793
-33.1474 0 -49.1174
21.0034 0 -4.1327
-1.20867 0 -5.4758
-22.1504 0 -0.376622
-31.0312 0 -7.59458
52.6867 0 -32.0438
53.871 0 45.7746
8.02194 0 14.776
-29.121 0 35.6284
-4.86743 0 -1.86407
17.216 0 37.1731
-23.2935 0 -34.9778
11.1912 0 -2.6879
6.66549 0 -5.9795
10.5946 0 1.26316
-19.7886 0 16.0356
-16.7644 0 4.05869
9.66498 0 -9.07179
-5.12067 0 4.7459
11.8182 0 3.35317
-10.5836 0 -24.0001
30.1718 0 102.339
-1.20624 0 0.952776
-17.3128 0 2.76905
11.0731 0 26.2121
8.61414 0 3.58056
-17.2704 0 32.8817
6.32268 0 23.6743
-7.61638 0 1.64873
-12.833 0 28.5544
17.4553 0 2.73425
1.31493 0 0.630507
-31.7473 0 100.888
9.59389 0 -22.1026
-11.7999 0 3.55483
4.9928 0 5.51787
-9.9071 0 -3.32162
16.3831 0 4.01666
19.9565 0 15.8719
-10.4711 0 1.67061
-6.35331 0 -5.68943
-11.5361 0 -2.75373
25.7337 0 -37.6258
-16.7026 0 34.4136
4.85479 0 -1.80894
28.8468 0 35.0371
-7.44121 0 14.445
-53.7999 0 45.656
-53.1312 0 -31.8823
31.661 0 -7.32709
21.846 0 -0.471225
1.22433 0 -5.49276
-20.9738 0 -4.13421
33.0556 0 -49.0181
21.7711 0 -3.41964
-2.38618 0 30.316
0.454063 0 -50.1016
-15.1226 0 32.3174
43.5501 0 11.6224
-18.3183 0 -4.30653
-7.45099 0 61.0887
16.6314 0 -13.6212
6.71489 0 1.11496
-1.94675 0 9.11549
-23.6004 0 12.6559
26.938 0 -1.26444
-0.545198 0 31.2698
-4.79923 0 7.25146
-39.1001 0 -9.01629
52.5389 0 17.6462
-30.6717 0 11.1456
-7.6856 0 80.557
28.4339 0 -32.6912
5.1348 0 -13.8998
-4.81519 0 -14.0536
-1.27943 0 3.7666
35.5768 0 -4.7732
-8.54786 0 -5.48054
5.50085 0 14.3989
5.98756 0 -2.38913
37.5746 0 46.2741
1.51692 0 8.55513
-47.9221 0 27.4121
-0.34346 0 -29.7301
-42.8143 0 -33.9127
-12.5905 0 -8.44908
27.6325 0 -16.4126
-19.8555 0 1.01563
13.138 0 -8.4711
39.2255 0 -33.0168
0.479951 0 -31.4556
49.8086 0 28.0766
-1.33506 0 8.78901
-40.2558 0 49.1532
-5.00993 0 -2.58944
-5.46885 0 14.1257
7.72055 0 -5.80229
-35.8206 0 -4.72272
1.24069 0 3.46652
4.81166 0 -13.3364
-5.22182 0 -14.0205
-32.447 0 -23.7132
8.55725 0 75.217
32.476 0 12.9837