# vtk DataFile Version 3.0
SiWiRVisFile
ASCII
DATASET UNSTRUCTURED_GRID
POINTS 1600 DOUBLE
75.6389 100 71.6898
73.5552 100 71.9059
74.724 100 72.2988
76.6105 100 72.3075
78.0533 100 72.6242
78.773 100 73.4736
79.7187 100 72.8802
80.7143 100 73.3281
81.9079 100 73.8543
80.9774 100 72.2888
93.3725 100 62.1076
92.1904 100 62.4287
93.0808 100 63.1358
91.1221 100 61.8535
81.0262 100 63.74
89.5573 100 56.2561
91.4188 100 54.7098
89.6987 100 52.3167
84.2837 100 43.7724
94.0029 100 48.1875
107.727 100 22.3383
108.529 100 21.1998
107.408 100 20.4546
107.84 100 18.8525
106.811 100 22.7979
111.355 100 22.3372
110.747 100 13.1903
115.595 100 13.8839
110.172 100 16.8039
110.21 100 15.5759
111.657 100 15.1922
113.209 100 15.4301
110.684 100 14.6006
113.918 100 14.3856
114.524 100 19.5636
116.873 100 23.4113
116.378 100 18.4048
115.621 100 21.5075
114.45 100 21.6499
115.138 100 22.5761
133.813 100 50.0314
140.209 100 43.7724
131.869 100 52.2413
133.435 100 53.6084
135.531 100 52.1611
135.236 100 66.2563
134.019 100 62.3378
133.832 100 64.6988
132.518 100 62.1003
132.739 100 63.2296
142.687 100 72.5018
141.739 100 73.96
142.859 100 73.5815
143.708 100 72.9554
145.962 100 73.2713
147.018 100 72.8031
148.086 100 72.4282
150.224 100 72.5311
151.753 100 71.7803
149.074 100 71.9977
72.6214 100 72.3418
73.6371 100 73.0392
75.6817 100 73.0125
76.7949 100 73.4992
77.7861 100 73.9756
79.8024 100 74.1495
80.9317 100 74.4325
81.9453 100 75.0364
83.2182 100 74.4113
84.0347 100 75.0003
85.0214 100 74.4592
92.5469 100 61.2256
91.481 100 63.3894
91.3876 100 59.534
90.3324 100 55.497
91.3131 100 60.8107
91.2579 100 53.538
90.9091 100 52.4471
92.2068 100 52.2825
95.8422 100 49.844
107.145 100 21.4731
95.0455 100 30.3868
107.139 100 35.4821
108.341 100 19.9677
109.658 100 20.8489
111.951 100 21.3459
112.829 100 20.4434
111.769 100 20.2322
105.746 100 8.16762
111.156 100 16.2198
112.324 100 16.2207
119.304 100 8.26504
113.713 100 18.2955
115.596 100 17.5047
115.087 100 20.5106
115.611 100 19.1692
114.323 100 17.3217
119.498 100 36.0667
129.483 100 30.3332
116.702 100 21.9195
127.959 100 49.2342
129.657 100 49.8559
132.677 100 50.3893
134.834 100 53.1755
133.446 100 61.307
133.964 100 54.7553
132.149 100 58.3483
133.824 100 63.5715
131.423 100 62.1138
139.442 100 74.8106
140.45 100 74.3248
141.452 100 75.0458
142.542 100 74.8261
143.718 100 74.2341
144.801 100 73.6657
146.871 100 73.8786
147.931 100 73.5181
149.001 100 73.0647
151.354 100 73.3155
152.285 100 72.6793
72.6221 100 73.5883
73.6715 100 74.1639
74.7128 100 73.5643
75.8464 100 74.0565
76.826 100 74.6843
78.777 100 74.5127
79.915 100 75.2151
80.9796 100 75.6441
82.0418 100 76.1973
83.0739 100 75.6742
85.0164 100 75.5853
84.3265 100 77.1886
86.3677 100 76.4963
92.3305 100 60.1274
90.3506 100 59.2102
92.5723 100 56.619
92.6182 100 54.3197
92.8399 100 53.2139
93.7882 100 50.9568
94.7671 100 48.993
95.7663 100 48.5854
104.697 100 36.0515
106.067 100 35.978
106.876 100 37.4207
94.8468 100 33.372
107.755 100 36.6643
107.457 100 34.1366
106.346 100 34.5936
111.739 100 17.2566
112.579 100 18.2083
112.84 100 17.201
113.691 100 16.411
121.701 100 36.3932
116.183 100 32.7349
118.306 100 35.7257
120.635 100 36.3415
118.924 100 36.9646
120.018 100 37.2551
121.09 100 37.4099
126.983 100 48.7711
134.006 100 51.2035
130.874 100 51.2309
134.093 100 52.4127
133.034 100 52.3957
132.737 100 55.924
132.309 100 57.0172
132.368 100 60.9682
138.776 100 75.6324
139.468 100 76.3862
140.221 100 75.5033
141.144 100 76.1904
142.317 100 75.9278
143.504 100 75.2898
144.619 100 74.7777
145.725 100 74.3512
147.896 100 74.6552
148.867 100 74.1248
150.005 100 73.6184
150.9 100 74.3143
152.247 100 73.9181
72.7578 100 74.7695
73.9298 100 75.2201
74.9229 100 74.6633
75.8714 100 75.2729
77.8066 100 75.2307
78.9053 100 75.7629
80.0487 100 76.3433
81.0988 100 76.7929
82.9831 100 76.7477
84.0892 100 76.0809
84.1338 100 78.534
85.3903 100 76.846
86.8426 100 75.4624
92.1758 100 58.6138
91.1225 100 58.3306
90.1857 100 57.6963
92.7221 100 55.4137
91.4369 100 55.8156
93.8171 100 53.791
93.4846 100 52.3062
93.9099 100 49.6398
96.7903 100 48.939
105.353 100 34.9846
104.241 100 40.167
105.564 100 37.1487
106.074 100 38.1422
108.18 100 39.0317
109.869 100 38.3098
108.299 100 35.2433
113.304 100 19.2405
114.81 100 18.4567
112.936 100 31.5761
115.809 100 37.9683
116.847 100 37.5019
117.951 100 37.8376
119.908 100 38.5939
119.063 100 37.9898
119.406 100 34.8687
126.845 100 49.9201
129.475 100 51.5755
130.147 100 52.5981
132.843 100 54.4776
131.702 100 54.8544
131.568 100 56.1119
131.176 100 57.3168
132.813 100 59.8882
131.497 100 60.116
138.295 100 74.6361
139.262 100 77.5081
140.324 100 77.1426
141.399 100 77.2841
142.465 100 76.9615
143.335 100 76.3485
144.445 100 75.8965
145.613 100 75.4935
146.664 100 74.9736
148.74 100 75.2768
149.76 100 74.8313
150.753 100 75.3557
151.813 100 74.9199
73.021 100 75.8991
73.9028 100 76.4878
74.8247 100 75.8297
76.8453 100 75.8683
77.9233 100 76.3878
78.9163 100 76.9747
79.889 100 77.5909
81.008 100 77.9131
82.0721 100 77.2902
83.2071 100 77.8676
84.0506 100 79.6826
87.3979 100 77.4195
87.4383 100 76.3497
94.7435 100 56.157
91.503 100 57.1216
90.4528 100 56.6831
95.1798 100 55.1954
94.8976 100 54.1736
94.5216 100 51.8745
95.6013 100 52.2756
95.2325 100 50.9318
102.543 100 45.4308
104.609 100 39.0212
107.462 100 39.8251
107.033 100 38.8027
108.522 100 40.3348
109.306 100 39.4243
110.716 100 39.0793
107.967 100 37.8398
110.413 100 21.6799
109.355 100 22.0373
116.893 100 35.9948
113.31 100 37.1719
114.77 100 39.0788
116.834 100 38.5666
117.652 100 36.757
117.845 100 38.879
118.175 100 39.9079
123.675 100 45.7475
129.156 100 48.7916
128.865 100 50.5474
129.023 100 52.6363
132.364 100 53.2529
130.537 100 54.8534
129.627 100 55.4779
130.618 100 59.4525
131.032 100 58.3695
138.28 100 76.8064
138.723 100 78.5469
140.387 100 79.721
140.915 100 78.2672
142.235 100 78.0908
143.388 100 77.6009
144.612 100 77.0317
145.629 100 76.5298
146.72 100 76.219
147.828 100 75.9341
149.687 100 75.8818
150.798 100 76.4758
151.847 100 76.0285
72.8229 100 77.0397
73.9857 100 77.6646
74.953 100 77.019
75.759 100 76.2941
76.9186 100 76.9689
78.0066 100 77.4495
78.8744 100 78.0476
79.9185 100 78.6827
81.175 100 78.9901
82.065 100 78.3424
83.1581 100 78.9426
85.0748 100 77.9336
86.8084 100 78.8081
86.6031 100 74.196
89.0972 100 75.4426
93.653 100 56.1831
95.8213 100 56.0262
96.9978 100 55.7879
96.3098 100 54.9531
94.7411 100 53.0665
96.3289 100 51.399
97.7348 100 49.5991
102.696 100 44.3569
103.685 100 42.5866
106.007 100 39.2753
106.61 100 40.4212
107.976 100 42.3792
109.592 100 40.5506
111.921 100 38.9699
110.899 100 37.9685
114.573 100 37.9524
113.187 100 38.4241
115.954 100 39.2347
115.06 100 40.0576
116.883 100 39.8072
118.988 100 39.1212
119.278 100 40.1223
123.692 100 44.5737
126.33 100 50.9306
127.828 100 50.433
128.441 100 51.5361
131.256 100 53.8637
128.413 100 55.8239
129.346 100 56.6334
130.452 100 56.2495
137.407 100 75.5951
141.013 100 70.2497
138.247 100 79.7414
139.894 100 78.7395
142.345 100 79.1856
143.291 100 78.6389
144.354 100 79.2182
144.421 100 78.1474
145.473 100 77.8378
146.512 100 77.3915
147.549 100 76.9425
148.765 100 76.4749
149.751 100 76.9283
150.74 100 77.6243
151.867 100 77.1254
71.6885 100 77.721
73.032 100 78.1591
74.9463 100 78.1223
75.9653 100 77.6026
77.0718 100 78.0937
77.1538 100 80.4287
78.5818 100 79.5621
80.275 100 79.6908
81.2962 100 80.2192
82.1751 100 79.4727
86.4272 100 79.7245
86.298 100 77.5681
88.1201 100 79.8546
87.9648 100 75.3044
94.228 100 57.2321
93.8583 100 54.9951
95.4024 100 57.0476
98.0006 100 55.9287
95.9346 100 53.9194
96.759 100 52.8194
96.9817 100 50.2816
100.145 100 51.1752
103.782 100 44.5466
105.355 100 40.3812
110.427 100 43.5832
108.624 100 41.539
104.658 100 45.3274
110.032 100 41.6017
104.327 100 46.5665
105.775 100 45.3009
119.805 100 46.8158
117.564 100 46.1698
114.953 100 41.2275
116.38 100 45.2903
117.074 100 42.7392
116.072 100 40.5806
117.17 100 41.0361
121.285 100 46.017
123.33 100 46.7067
127.344 100 51.7213
127.945 100 52.6873
129.718 100 53.5905
127.903 100 54.8387
128.354 100 56.9038
130.054 100 57.4084
129.824 100 58.5311
137.224 100 74.4146
131.176 100 76.9013
139.305 100 79.633
142.328 100 80.2697
143.332 100 79.7087
144.31 100 80.3014
145.22 100 79.7621
146.06 100 79.0789
147.064 100 79.6384
147.528 100 78.0269
148.537 100 77.5727
149.475 100 78.1236
151.463 100 78.3837
152.761 100 77.9819
72.1289 100 78.6363
73.0289 100 79.357
73.9599 100 78.7431
74.9825 100 79.4465
76.0155 100 78.6738
76.021 100 80.0774
77.0893 100 79.2608
79.5297 100 80.4525
80.6314 100 81.1291
81.8212 100 81.2887
82.7602 100 80.5796
82.6865 100 81.8744
85.7621 100 78.852
85.071 100 80.191
83.4543 100 82.9991
90.2022 100 78.3119
95.2007 100 59.18
96.6106 100 56.9209
98.5862 100 54.2806
97.5972 100 54.8649
97.5941 100 53.4593
97.7634 100 52.0619
103.639 100 45.8341
104.419 100 41.2324
107.655 100 40.9279
109.399 100 42.8925
106.988 100 41.8659
103.98 100 47.6969
105.802 100 47.3376
107.575 100 48.28
118.982 100 46.2103
120.798 100 47.3839
121.633 100 48.1234
118.463 100 42.9736
117.37 100 43.8154
118.078 100 41.9999
118.601 100 41.0223
122.547 100 45.8131
125.441 100 51.7436
128.409 100 53.7056
127.34 100 53.6041
125.85 100 53.8681
126.738 100 56.46
128.987 100 57.7515
131.14 100 75.7512
140.833 100 82.1208
140.486 100 80.9917
139.476 100 80.7496
141.564 100 81.0937
142.025 100 82.0237
142.814 100 81.2182
145.244 100 80.8796
146.385 100 81.4336
146.25 100 80.3472
148.308 100 80.055
148.471 100 78.6318
149.419 100 79.4929
150.382 100 78.9598
151.28 100 79.7162
152.407 100 78.9389
71.783 100 79.9019
73.0976 100 80.4585
74.0849 100 79.9999
75.0247 100 80.6872
76.4145 100 82.2365
74.1432 100 83.3961
76.2514 100 81.1245
78.4542 100 80.6814
79.3796 100 81.5916
78.3145 100 82.2794
80.5744 100 82.2573
80.8651 100 83.4153
81.75 100 82.7354
82.5505 100 83.6242
84.2185 100 80.8637
88.1256 100 78.6357
96.3146 100 59.1166
96.1619 100 58.0268
99.2119 100 55.6305
99.9645 100 52.2131
[...]
POINT_DATA 1600
SCALARS mass double
LOOKUP_TABLE default
1
1
1
1
1
1
1
1
1
1
1
1
1
1
1
1
1
1
1
1
1
1
1
1
1
1
1
1
1
1
1
1
1
1
1
1
1
1
1
1
1
1
1
1
1
1
1
1
1
1
1
1
1
1
1
1
1
1
1
1
1
1
1
1
1
1
1
1
1
1
1
1
1
1
1
1
1
1
1
1
1
1
1
1
1
1
1
1
1
1
1
1
1
1
1
1
1
1
1
1
1
1
1
1
1
1
1
1
1
1
1
1
1
1
1
1
1
1
1
1
1
1
1
1
1
1
1
1
1
1
1
1
1
1
1
1
1
1
1
1
1
1
1
1
1
1
1
1
1
1
1
1
1
1
1
1
1
1
1
1
1
1
1
1
1
1
1
1
1
1
1
1
1
1
1
1
1
1
1
1
1
1
1
1
1
1
1
1
1
1
1
1
1
1
1
1
1
1
1
1
1
1
1
1
1
1
1
1
1
1
1
1
1
1
1
1
1
1
1
1
1
1
1
1
1
1
1
1
1
1
1
1
1
1
1
1
1
1
1
1
1
1
1
1
1
1
1
1
1
1
1
1
1
1
1
1
1
1
1
1
1
1
1
1
1
1
1
1
1
1
1
1
1
1
1
1
1
1
1
1
1
1
1
1
1
1
1
1
1
1
1
1
1
1
1
1
1
1
1
1
1
1
1
1
1
1
1
1
1
1
1
1
1
1
1
1
1
1
1
1
1
1
1
1
1
1
1
1
1
1
1
1
1
1
1
1
1
1
1
1
1
1
1
1
1
1
1
1
1
1
1
1
1
1
1
1
1
1
1
1
1
1
1
1
1
1
1
1
1
1
1
1
1
1
1
1
1
1
1
1
1
1
1
1
1
1
1
1
1
1
1
1
1
1
1
1
1
1
1
1
1
1
1
1
1
1
1
1
1
1
1
1
1
1
1
1
1
1
1
1
1
1
1
1
1
1
1
1
1
1
1
1
1
1
1
1
1
1
1
1
1
1
1
1
1
1
1
1
1
1
1
1
1
1
1
1
1
1
1
1
1
1
1
1
1
1
1
1
1
1
1
1
1
1
1
1
1
1
1
1
1
1
1
1
1
1
1
1
1
1
1
1
1
1
1
1
1
1
1
1
1
1
1
1
1
1
1
1
1
1
1
1
1
1
1
1
1
1
1
1
1
1
1
1
1
1
1
1
1
1
1
1
1
1
1
1
1
1
1
1
1
1
1
1
1
1
1
1
1
1
1
1
1
1
1
1
1
1
1
1
1
1
1
1
1
1
1
1
1
1
1
1
1
1
1
1
1
1
1
1
1
1
1
1
1
1
1
1
1
1
1
1
1
1
1
1
1
1
1
1
1
1
1
1
1
1
1
1
1
1
1
1
1
1
1
1
1
1
1
1
1
1
1
1
1
1
1
1
1
1
1
1
1
1
1
1
1
1
1
1
1
1
1
1
1
1
1
1
1
1
1
1
1
1
1
1
1
1
1
1
1
1
1
1
1
1
1
1
1
1
1
1
1
1
1
1
1
1
1
1
1
1
1
1
1
1
1
1
1
1
1
1
1
1
1
1
1
1
1
1
1
1
1
1
1
1
1
1
1
1
1
1
1
1
1
1
1
1
1
1
1
1
1
1
1
1
1
1
1
1
1
1
1
1
1
1
1
1
1
1
1
1
1
1
1
1
1
1
1
1
1
1
1
1
1
1
1
1
1
1
1
1
1
1
1
1
1
1
1
1
1
1
1
1
1
1
1
1
1
1
1
1
1
1
1
1
1
1
1
1
1
1
1
1
1
1
1
1
1
1
1
1
1
1
1
1
1
1
1
1
1
1
1
1
1
1
1
1
1
1
1
1
1
1
1
1
1
1
1
1
1
1
1
1
1
1
1
1
1
1
1
1
1
1
1
1
1
1
1
1
1
1
1
1
1
1
1
1
1
1
1
1
1
1
1
1
1
1
1
1
1
1
1
1
1
1
1
1
1
1
1
1
1
1
1
1
1
1
1
1
1
1
1
1
1
1
1
1
1
1
1
1
1
1
1
1
1
1
1
1
1
1
1
1
1
1
1
1
1
1
1
1
1
1
1
1
1
1
1
1
1
1
1
1
1
1
1
1
1
1
1
1
1
1
1
1
1
1
1
1
1
1
1
1
1
1
1
1
1
1
1
1
1
1
1
1
1
1
1
1
1
1
1
1
1
1
1
1
1
1
1
1
1
1
1
1
1
1
1
1
1
1
1
1
1
1
1
1
1
1
1
1
1
1
1
1
1
1
1
1
1
1
1
1
1
1
1
1
1
1
1
1
1
1
1
1
1
1
1
1
1
1
1
1
1
1
1
1
1
1
1
1
1
1
1
1
1
1
1
1
1
1
1
1
1
1
1
1
1
1
1
1
1
1
1
1
1
1
1
1
1
1
1
1
1
1
1
1
1
1
1
1
1
1
1
1
1
1
1
1
1
1
1
1
1
1
1
1
1
1
1
1
1
1
1
1
1
1
1
1
1
1
1
1
1
1
1
1
1
1
1
1
1
1
1
1
1
1
1
1
1
1
1
1
1
1
1
1
1
1
1
1
1
1
1
1
1
1
1
1
1
1
1
1
1
1
1
1
1
1
1
1
1
1
1
1
1
1
1
1
1
1
1
1
1
1
1
1
1
1
1
1
1
1
1
1
1
1
1
1
1
1
1
1
1
1
1
1
1
1
1
1
1
1
1
1
1
1
1
1
1
1
1
1
1
1
1
1
1
1
1
1
1
1
1
1
1
1
1
1
1
1
1
1
1
1
1
1
1
1
1
1
1
1
1
1
1
1
1
1
1
1
1
1
1
1
1
1
1
1
1
1
1
1
1
1
1
1
1
1
1
1
1
1
1
1
1
1
1
1
1
1
1
1
1
1
1
1
1
1
1
1
1
1
1
1
1
1
1
1
1
1
1
1
1
1
1
1
1
1
1
1
1
1
1
1
1
1
1
1
1
1
1
1
1
1
1
1
1
1
1
1
1
1
1
1
1
1
1
1
1
1
1
1
1
1
1
1
1
1
1
1
1
1
1
1
1
1
1
1
1
1
1
1
1
1
1
1
1
1
1
1
1
1
1
1
1
1
1
1
1
1
1
1
1
1
1
1
1
1
1
1
1
1
1
1
1
1
1
1
1
1
1
1
1
1
1
1
1
1
1
1
1
1
1
1
1
1
1
1
1
1
1
1
1
1
1
1
1
1
1
1
1
1
1
1
1
1
1
1
1
1
1
1
1
1
1
1
1
1
1
1
1
1
1
1
1
1
1
1
1
1
1
1
1
1
1
1
1
1
1
1
1
1
1
1
1
1
1
1
1
1
1
1
1
1
1
1
1
1
1
1
1
1
1
1
1
1
1
1
1
1
1
1
1
1
1
1
1
1
1
1
1
1
1
1
1
1
1
1
1
1
1
1
1
1
1
1
1
1
1
1
1
1
1
1
1
1
1
1
1
1
1
1
1
1
1
1
1
1
1
1
1
1
1
1
1
1
1
1
1
1
1
1
1
1
1
1
1
1
1
1
1
1
1
1
1
1
1
1
1
1
1
1
1
1
1
1
1
1
1
1
1
1
1
1
1
1
1
1
VECTORS force double
11.7863 0 10.9066
71.3763 0 -18.1171
-17.8148 0 26.8067
-5.58991 0 16.5736
-10.9949 0 9.91516
14.3885 0 -44.6632
-3.61974 0 4.42119
5.20616 0 42.6514
-7.20077 0 10.3623
-1.45181 0 -16.6189
-12.9849 0 -30.4005
0.349304 0 -10.8641
-13.9832 0 21.9397
10.5768 0 39.2822
0 0 0
-133.273 0 -45.4191
7.65517 0 -9.82381
12.3737 0 1.84878
0 0 0
-1.20534 0 4.5578
100.631 0 -0.445322
-6.03976 0 -4.76249
-15.3222 0 -16.6557
4.07384 0 13.9914
-62.2243 0 22.975
-2.02679 0 -10.637
-0.209285 0 8.67047
-2.1222 0 0.634877
8.96059 0 -14.3718
3.40124 0 27.4119
-0.261 0 15.4674
-11.0452 0 -11.0806
11.5076 0 -16.6094
-5.03722 0 10.2585
-10.9986 0 -20.6118
-1.91782 0 -6.53841
-0.701702 0 -19.0688
-7.74206 0 9.66391
18.7686 0 -6.5963
3.29453 0 -14.9245
-8.41212 0 13.8498
0 0 0
2.68201 0 -1.07083
31.8192 0 -44.2956
-14.9231 0 9.99686
-0.440027 0 -0.488079
-16.1389 0 5.05089
-0.530396 0 -2.44556
25.2293 0 -5.46119
5.36695 0 -8.9877
-3.83495 0 -8.42129
8.77229 0 6.73144
-54.0656 0 38.6326
41.0953 0 -1.94162
-11.7824 0 -7.82658
5.16602 0 -6.18862
-21.2127 0 3.11567
-9.37224 0 1.07769
-27.6216 0 -35.4521
30.1316 0 -25.1793
-47.9722 0 47.1676
3.96101 0 -5.54123
3.85357 0 -50.7981
-8.53309 0 -14.3175
-3.47791 0 16.56
16.2884 0 -50.0788
-6.69781 0 19.3974
4.25064 0 -0.414471
-98.6258 0 -47.1
80.5263 0 53.4166
1.07917 0 2.88696
-10.5452 0 19.5137
9.42638 0 -13.8386
16.1002 0 -5.51598
26.9973 0 -3.70671
27.2738 0 -46.96
9.07439 0 3.29292
1.63851 0 2.98734
0.0257251 0 6.40306
6.02554 0 -6.80897
-31.0521 0 4.35051
0 0 0
-1.00435 0 -4.17831
34.7648 0 -13.3677
-15.3859 0 12.4034
-0.181421 0 -3.14933
15.3796 0 0.898441
-16.7962 0 -1.86944
0 0 0
8.02164 0 2.29558
-6.23834 0 -9.77616
0 0 0
19.5898 0 -69.9204
-13.2837 0 19.0339
1.61938 0 10.9547
-4.418 0 32.8867
8.28136 0 22.1096
15.5851 0 -23.7509
0 0 0
-9.36353 0 3.80031
20.5199 0 25.1267
23.7597 0 -30.9689
13.0742 0 1.3719
18.5037 0 14.1071
-8.90434 0 12.3285
-13.5121 0 -12.7645
-3.53832 0 -11.6576
-2.30337 0 -12.6957
-3.61459 0 -4.12485
-23.4597 0 -55.207
18.2301 0 16.5356
-16.5988 0 16.4654
-13.6346 0 -31.8131
-14.0762 0 -38.9742
-3.99329 0 2.2492
5.74933 0 30.7359
-0.174458 0 3.40613
9.55094 0 5.15095
-26.1401 0 -23.7113
21.3362 0 54.7348
18.5715 0 0.0876584
14.8749 0 -26.034
-10.993 0 -5.05554
0.0841362 0 47.0386
1.28575 0 -10.2227
-13.4146 0 81.1297
3.74649 0 19.734
1.75381 0 0.496066
-13.1982 0 -34.4909
-15.8269 0 -41.3839
37.2512 0 -8.27657
-45.0307 0 -17.6422
40.3186 0 -37.238
-9.29052 0 2.36408
-6.18455 0 -15.4176
-5.29592 0 -14.8941
1.48601 0 -8.29513
-2.09233 0 6.13066
12.2802 0 5.85083
11.058 0 3.5671
1.2302 0 0.383176
20.9784 0 -4.40305
-6.51571 0 -6.71067
17.8482 0 -10.518
0 0 0
-9.07562 0 1.75886
-7.62739 0 20.1244
41.1443 0 2.16562
-1.31522 0 -11.3258
-8.77454 0 50.6786
38.5043 0 -46.6858
-12.6147 0 12.004
20.1584 0 10.6317
0 0 0
8.97382 0 18.62
-31.805 0 -1.7056
-42.65 0 -36.0651
-36.4575 0 8.79405
14.4678 0 -11.8805
-16.137 0 1.11568
-6.48004 0 4.5777
-4.8529 0 10.0798
12.7854 0 -24.4784
-27.5455 0 -5.08347
-16.0459 0 -2.66866
-14.4213 0 -2.63213
-6.35437 0 -5.73725
-77.7751 0 -13.0363
50.4288 0 56.6223
43.1583 0 32.3346
2.83923 0 -4.76889
-25.7544 0 -59.1467
24.5192 0 6.32151
42.0467 0 30.1145
-4.47169 0 8.21306
-59.8926 0 -19.7248
15.8486 0 28.792
-9.14334 0 18.9898
-13.2623 0 -35.4992
11.9983 0 -9.04751
5.64152 0 6.33421
-18.5268 0 10.767
-15.1211 0 12.2169
0.957797 0 -73.9824
13.8818 0 -1.68489
-3.04227 0 1.12984
-10.1632 0 6.60528
-20.9222 0 -8.31569
53.5161 0 11.3069
-30.2567 0 50.8472
30.044 0 -17.2424
-52.2326 0 12.6551
-17.1927 0 -27.7113
2.17259 0 13.6567
-13.7118 0 0.977121
-2.83806 0 42.1587
4.67363 0 22.5344
3.0067 0 23.3588
-0.20652 0 5.65734
-0.195516 0 -2.24005
-15.4525 0 18.3217
13.565 0 26.5998
-22.6134 0 30.4255
5.14992 0 -27.2523
9.46256 0 -16.2111
-7.0225 0 23.615
18.1644 0 -17.6984
-18.212 0 19.9894
-18.0462 0 0.0212154
-23.9804 0 63.4099
-9.93566 0 -29.0831
0 0 0
-0.178546 0 19.4746
-1.46255 0 -21.3206
0.091301 0 -45.9394
71.343 0 5.28956
-32.8814 0 25.4618
-5.16537 0 18.0008
6.13114 0 -10.1354
62.0781 0 6.16886
4.70829 0 -28.4855
-33.859 0 33.7033
11.3385 0 24.8026
8.833 0 2.12957
12.0999 0 -47.0485
-13.3102 0 11.4511
24.7684 0 9.25687
9.26559 0 7.90125
-7.5922 0 5.09563
-7.0651 0 -4.49792
24.8252 0 -3.54886
-19.0412 0 67.9534
42.4469 0 18.4302
10.6501 0 7.30034
-5.04008 0 -63.8625
5.91962 0 17.3202
33.8511 0 31.2005
14.6492 0 -58.2319
-1.98746 0 47.7037
-4.53852 0 12.2822
-24.3669 0 -20.3955
30.1987 0 24.791
-22.5385 0 -13.7663
2.77375 0 -14.3187
-6.94737 0 -37.8067
73.3906 0 -72.8382
12.173 0 -29.3541
-3.77609 0 -14.0095
-17.134 0 4.11937
-8.12418 0 -29.0857
-3.45216 0 1.68637
-0.241331 0 27.0773
46.8856 0 -10.8664
-27.8072 0 33.7249
-4.58835 0 -0.7669
149.406 0 2.41336
-3.17616 0 -41.1488
-44.7037 0 -17.2213
8.83849 0 -0.636014
-1.42539 0 0.484029
4.62996 0 8.11762
8.2911 0 -1.97652
9.40078 0 14.8847
34.1896 0 -6.79913
4.0287 0 -18.6742
19.2772 0 -35.7287
-5.16677 0 0.606836
0.183704 0 -2.51337
-15.3445 0 6.48334
10.2932 0 0.917396
-8.10398 0 -17.3364
-7.30477 0 -9.53474
3.98482 0 15.5976
-9.94609 0 -83.2406
-27.7062 0 17.159
40.6176 0 2.4206
27.1891 0 42.48
-4.38784 0 27.5642
25.1016 0 -85.8043
-8.17729 0 15.0304
30.2655 0 18.5076
13.8479 0 0.0265779
-13.5453 0 28.2012
19.1663 0 -6.90618
-18.8264 0 18.2284
-9.48161 0 -22.1752
-25.7766 0 32.4115
14.8612 0 -9.85098
3.33026 0 11.1732
16.9964 0 23.7241
-1.05593 0 1.7958
5.56358 0 -18.14
9.50744 0 -56.4804
-5.75702 0 1.68961
0.37276 0 70.5058
-13.9399 0 -12.8137
-9.21124 0 -64.8405
21.204 0 -9.68834
-1.36849 0 5.71911
-15.7569 0 -9.08688
13.5272 0 4.15646
-9.61806 0 -60.4356
-20.0538 0 -2.2851
64.6927 0 91.2815
3.53622 0 7.45305
-104.144 0 36.7659
35.2501 0 54.841
-1.878 0 -18.8567
-20.3766 0 25.842
23.0939 0 36.227
-37.52 0 33.6752
42.0477 0 23.4802
107.663 0 -142.915
-0.406789 0 14.3249
6.57331 0 -30.3083
-19.3901 0 -6.93413
64.4946 0 22.6338
-99.4589 0 22.3151
-10.0921 0 2.92976
-3.83943 0 -12.0305
-1.0294 0 -6.85444
59.1486 0 -51.699
-1.38284 0 -15.0007
14.8162 0 3.79448
-1.78701 0 15.8366
-54.2447 0 30.8748
-12.4364 0 20.9735
3.77419 0 3.11754
-8.82552 0 -8.23061
19.4927 0 1.8488
3.02607 0 5.38279
1.40459 0 -9.39358
-33.5639 0 0.422421
35.9042 0 77.8581
30.7165 0 -1.23141
-54.2106 0 -37.4556
13.6196 0 47.8624
-2.12761 0 11.8015
6.76877 0 12.0684
-44.3608 0 4.21024
-68.5034 0 28.0702
-5.04051 0 -13.2642
22.8031 0 -7.71662
38.4641 0 -60.3959
-5.44893 0 14.3429
20.8797 0 -19.2493
0 0 0
-34.3194 0 -8.59004
-3.5684 0 -40.3584
-11.682 0 -5.09229
15.7322 0 15.4444
-75.8322 0 -39.9704
-25.2024 0 -19.7228
8.4566 0 -11.1289
2.23879 0 -11.8982
10.2255 0 34.8284
-17.1567 0 0.967813
19.4916 0 68.8395
-39.0371 0 -37.8532
-16.3442 0 26.6659
-20.4645 0 -81.8866
36.3191 0 -27.636
33.1399 0 35.9613
-0.00313584 0 -34.3069
-16.2043 0 3.12905
0.0889934 0 4.00735
6.79995 0 2.03349
36.7088 0 8.53406
5.95923 0 -7.65001
2.19322 0 13.6962
-56.1513 0 133.595
-20.5578 0 36.264
0.723695 0 -6.22529
0.390357 0 16.3918
9.28331 0 -22.1965
2.49845 0 0.0985679
9.16185 0 17.9781
109.756 0 17.1602
22.0843 0 -21.5465
-40.763 0 -34.2496
-108.866 0 43.0252
14.4866 0 -29.2972
5.56872 0 25.8633
8.25673 0 5.56531
-10.1041 0 -7.50402
26.8442 0 -41.7122
-11.7353 0 10.9908
-14.2581 0 2.40131
31.4363 0 93.019
9.45396 0 -19.533
63.1395 0 38.4725
9.65461 0 3.89695
11.4824 0 -16.0611
6.22536 0 2.11753
17.8632 0 -10.9091
-4.75384 0 -2.63647
5.88769 0 -10.2538
8.48333 0 9.90595
-45.1505 0 80.1014
-10.9837 0 -4.37805
-17.6711 0 -20.9004
-17.5838 0 15.1926
-0.68874 0 -22.4539
-93.3072 0 16.9744
38.2144 0 29.9072
17.3799 0 -4.20365
-7.58526 0 9.5818
20.8531 0 -12.7064
-4.39663 0 9.07804
-8.07491 0 -11.1148
4.42666 0 31.9453
-42.9411 0 37.6157
90.6125 0 36.0868
14.3027 0 -6.07205
22.3877 0 -4.7453
-15.8261 0 13.5353
-5.47268 0 -51.6306
30.5871 0 7.86824
20.3989 0 29.3919
8.68963 0 -81.0101
-25.4042 0 129.575
-4.00953 0 -10.8742
26.4909 0 36.632
40.5523 0 -25.9869
1.35314 0 32.2196
-6.2377 0 -33.8885
-12.8742 0 1.21671
-8.45662 0 21.2163
-7.79642 0 -5.349
-51.1773 0 -35.0478
-9.50381 0 0.49604
36.6094 0 32.2194
-56.7692 0 -13.9886
24.3434 0 -9.85871
12.4517 0 -9.91905
7.44837 0 -84.6043
8.9363 0 4.22072
-5.45392 0 -4.98322
-4.83459 0 3.32404
-0.501873 0 -12.2409
38.6896 0 32.7218
-1.6034 0 -0.827672
-77.4739 0 -95.0606
24.3024 0 28.0582
-38.9369 0 33.1876
5.70232 0 -6.06144
-7.49356 0 -16.2046
-8.37101 0 -12.433
-18.8883 0 -39.196
-24.2344 0 -35.8681
-67.1407 0 -47.411
-7.70152 0 3.12518
-2.20895 0 55.4735
2.38058 0 43.6054
7.06121 0 -2.76605
-39.9465 0 -39.8229
8.2941 0 -4.01475
-4.21551 0 14.3407
1.02796 0 6.35126
34.2754 0 1.90396
-15.6994 0 24.3911
76.5009 0 -66.1672
-12.5827 0 3.5184
15.9752 0 24.1297
12.262 0 -20.2353
17.6856 0 -5.78925
37.4372 0 9.14689
-59.9529 0 -13.9035
-3.19211 0 -38.1066
21.7067 0 55.6497
8.6035 0 26.5636
40.4441 0 5.15078
7.32672 0 -6.70372
-20.5454 0 -6.56799
-4.67705 0 4.66398
5.78652 0 46.9597
-42.7942 0 -7.32385
16.4479 0 -9.8916
24.9957 0 -30.203
-29.0432 0 91.4963
20.3902 0 -10.7696
-2.4965 0 -1.25866
-24.9254 0 12.4708
3.39069 0 -3.86138
-35.8687 0 -12.2361
-18.2335 0 -28.8355
32.0952 0 4.49288
-15.9436 0 14.2415
0.00685057 0 -4.69879
23.5992 0 -20.7551
4.54237 0 11.0914
-9.72139 0 6.47846
8.2786 0 -11.1365
-9.2413 0 7.99829
-16.7732 0 -0.587538
-8.38244 0 7.43239
-7.4697 0 13.0633
-27.1163 0 -30.791
-15.9556 0 -1.36549
32.3177 0 47.0938
23.5373 0 18.7974
10.8292 0 29.8445
0.200563 0 -18.2042
-5.31168 0 -8.37763
129.519 0 -133.223
-8.08677 0 -10.0095
-21.685 0 -29.841
-4.05635 0 17.6179
23.7454 0 43.3163
30.5869 0 11.5545
4.18583 0 8.62906
6.21719 0 6.67816
-3.89027 0 -152.056
52.2011 0 -39.2498
3.52688 0 -19.4903
-14.3688 0 16.2522
-21.05 0 6.60378
20.7849 0 -61.6753
-19.5816 0 -14.3902
-7.11257 0 -8.34229
-7.71785 0 10.0861
2.2403 0 -27.287
8.39477 0 -3.10286
13.4946 0 -5.73988
18.561 0 -8.82147
24.9095 0 28.4322
-60.6977 0 -10.3164
47.7784 0 -2.40259
3.94939 0 -3.54611
-19.3781 0 16.1074
-23.6357 0 10.0896
-47.8669 0 -22.8925
-23.8809 0 -16.3692
3.66074 0 -0.597394
-52.8398 0 -22.8441
4.97512 0 11.5726
22.2327 0 -20.1547
0.839677 0 13.7703
1.00515 0 -78.152
-19.8141 0 8.68541
5.57667 0 11.7902
19.7323 0 31.02
-11.914 0 -53.466
-5.05111 0 7.98858
-30.9464 0 -95.4166
-5.87458 0 -24.1539
0.105204 0 13.1138
-49.6631 0 97.1058
-2.5779 0 -9.28909
10.2524 0 53.2981
-9.1514 0 11.7995
11.3613 0 13.3067
-34.611 0 -57.2197
-7.9899 0 6.4992
-88.4404 0 4.12853
-0.991175 0 7.93277
5.41738 0 4.04366
-24.8378 0 29.4604
31.0587 0 -8.12174
36.3178 0 6.01032
-45.107 0 15.2492
-12.2791 0 7.07129
-33.9389 0 -17.0591
-53.4278 0 129.447
-9.18626 0 -8.36908
1.53782 0 16.3004
85.0496 0 -55.3095
5.70856 0 -1.10989
-6.66091 0 -13.5821
-1.72105 0 -10.9971
1.40638 0 34.5132
-12.7093 0 -10.4609
51.4166 0 22.0699
-67.7299 0 34.5049
5.6152 0 2.97041
-69.1399 0 17.2284
52.962 0 -9.10745
-20.3345 0 -12.3119
2.48688 0 -15.7283
-69.5369 0 19.5722
-6.07903 0 65.6149
-17.0128 0 0.184314
7.95586 0 8.92061
-0.736428 0 14.832
-13.4607 0 -4.39711
19.4345 0 3.58984
5.65507 0 -5.41485
-6.06147 0 13.9793
-37.6892 0 3.12187
26.0969 0 -5.8758
17.0463 0 -14.9109
0.438233 0 3.54029
-6.49224 0 -0.408706
118.648 0 -66.4145
16.6912 0 14.1371
-13.9602 0 -7.35349
28.746 0 48.4811
22.7337 0 18.8674
-7.39747 0 71.891
-23.6276 0 -13.0761
1.54933 0 9.42007
8.15953 0 9.00494
-7.40596 0 -10.2759
-96.7879 0 -149.259
75.0318 0 143.399
36.6612 0 -23.1086
29.3815 0 -21.2152
33.0129 0 -5.60072
6.769 0 -9.61682
44.522 0 23.4415
-42.7618 0 -10.2685
65.1318 0 -34.76
19.7979 0 23.5147
43.0052 0 -25.1461
-3.85172 0 -9.67568
-3.64506 0 19.6041
4.81891 0 -5.61287
-37.045 0 52.561
-6.02256 0 7.90915
-4.08655 0 -22.4547
8.42406 0 8.2774
7.77148 0 61.2953
-52.8999 0 -66.5195
-72.0267 0 -22.9784
15.2267 0 -10.5236
38.5945 0 85.6061
-84.634 0 11.5172
17.9458 0 11.7455
-12.664 0 -23.019
-27.3213 0 12.8949
63.416 0 -60.4771
14.518 0 3.85379
-20.0644 0 -32.949
4.52721 0 -4.98928
14.7859 0 19.7926
9.61097 0 -5.1285
83.5352 0 -15.7773
18.953 0 -24.9208
8.70319 0 5.79223
7.72956 0 28.3629
-3.27221 0 -31.8336
9.52448 0 7.98027
-33.0924 0 -12.7359
12.0512 0 17.0008
36.4455 0 -35.2027
-7.46516 0 -7.04492
13.9527 0 4.82912
2.613 0 0.54216
-12.4007 0 -8.08318
8.21388 0 -1.6296
39.5657 0 64.071
54.6295 0 -69.3306
-121.08 0 -17.6631
-18.9786 0 3.0922
33.322 0 -51.7639
-26.2215 0 -8.41524
15.2122 0 22.6728
3.71417 0 -2.90869
-16.4158 0 7.78431
4.33503 0 -5.15776
-22.1 0 3.26518
6.54104 0 -7.42753
12.9616 0 -17.3274
11.196 0 57.0208
-46.2564 0 -1.29321
6.50088 0 -6.20294
-11.5688 0 -0.179991
9.10211 0 18.5808
-54.3178 0 -88.9793
17.2862 0 21.2051
3.69047 0 5.8399
-40.5411 0 17.1246
-21.8348 0 -26.8042
-4.90491 0 -14.3188
3.44797 0 -3.1433
-45.0925 0 21.0608
3.71219 0 -14.3866
2.30429 0 1.57551
6.39121 0 -0.814179
12.2986 0 4.07052
14.9458 0 -1.29599
-14.9166 0 -10.8993
-19.7075 0 -23.6562
-8.75705 0 5.91229
30.3222 0 -27.9041
8.19359 0 -9.27872
-0.7064 0 4.2845
-17.3389 0 0.596539
-16.6371 0 7.07456
-14.5026 0 6.43768
9.0227 0 17.6926
-27.5071 0 152.891
11.4242 0 6.50383
4.23779 0 -12.9777
-4.17315 0 6.62153
11.796 0 -17.3277
4.16636 0 -0.0473739
5.82113 0 7.83741
-44.5294 0 18.5361
25.4637 0 -10.0283
-19.6921 0 30.8114
23.7738 0 -50.5112
-5.41357 0 4.63552
-23.3545 0 -34.0951
1.99163 0 12.8628
-5.46032 0 -13.1365
-6.53646 0 -17.0783
-1.76282 0 -1.24568
-83.3361 0 -32.0129
2.14837 0 -28.3216
7.80336 0 12.5211
-62.199 0 136.432
-25.96 0 77.3049
33.862 0 -130.563
-8.59239 0 -18.4292
14.6177 0 34.5507
10.8739 0 -16.7221
-1.24363 0 0.543353
1.78498 0 5.54404
-1.4079 0 1.39238
3.28936 0 10.2831
-3.48532 0 13.1877
5.43815 0 3.07807
-6.16355 0 -20.3718
12.6368 0 3.82647
-9.27295 0 1.71625
9.3236 0 -25.1375
-4.31691 0 -4.51877
-1.71203 0 16.7785
2.12954 0 26.9955
1.73185 0 -9.47107
-4.04247 0 -29.9931
-27.611 0 2.15978
39.0554 0 54.5075
77.7962 0 -6.75727
54.4234 0 1.87253
-6.51258 0 -5.5687
-8.91497 0 6.36504
79.2228 0 -60.249
39.1227 0 -51.7843
-74.1105 0 51.2314
-3.7008 0 -1.63367
49.6584 0 26.8716
-75.6634 0 -20.1022
-5.98341 0 -10.0766
-48.3569 0 -57.0419
-8.63019 0 22.7733
-9.3559 0 -0.369712
15.8858 0 -18.4161
-34.6107 0 70.4486
9.28093 0 -29.3022
14.1619 0 -15.1949
3.93707 0 -6.86462
13.3599 0 6.13398
-15.004 0 21.7345
-72.1083 0 7.70196
-1.77869 0 10.1449
-0.619783 0 -10.7267
13.0961 0 -10.3703
46.9654 0 -33.464
-27.3744 0 21.9523
4.82509 0 3.92441
-2.43009 0 3.57384
-23.8851 0 -30.8068
-23.1224 0 -3.3766
22.2216 0 0.699965
13.9175 0 -108.057
28.2079 0 26.4637
68.6199 0 20.3045
-7.4122 0 -6.87438
-28.5278 0 -20.7202
8.01642 0 11.3957
7.62708 0 -0.718342
29.2179 0 23.9877
4.79607 0 4.83727
-0.198368 0 8.71694
-1.58375 0 20.7511
-14.7333 0 36.2321
6.98937 0 -44.8331
-18.7304 0 9.90907
3.05892 0 -4.07108
7.8393 0 5.74651
10.5367 0 -6.55022
-1.89946 0 7.24526
-54.24 0 0.64377
76.3513 0 -8.90887
15.4011 0 -21.7877
-0.641218 0 -11.274
5.69674 0 3.24585
0.523492 0 13.1839
2.23399 0 -0.664554
3.71888 0 -13.263
3.9648 0 3.69167
33.417 0 -16.4524
-30.3543 0 -14.6012
-15.0854 0 43.2183
4.02328 0 -32.8399
-44.8018 0 -3.86151
6.38843 0 -5.31106
-23.8961 0 -0.584905
15.3204 0 7.51256
13.9193 0 -1.38855
12.5776 0 -7.06262
-3.35833 0 -2.04758
4.09223 0 69.2714
-24.6886 0 32.4668
-12.8077 0 15.1508
37.8563 0 12.8971
-3.00142 0 12.2361
1.96424 0 -11.4685
18.057 0 8.61108
-106.678 0 17.6725
36.3161 0 66.626
81.1383 0 -39.6928
9.83246 0 6.15233
4.63577 0 -2.03168
4.69295 0 6.05394
-24.7342 0 -3.09379
17.3722 0 9.76689
-0.712722 0 -5.24333
5.03709 0 -4.44812
34.3853 0 -45.2918
6.76714 0 3.65645
-6.2546 0 15.6932
27.2116 0 -6.76343
-9.12659 0 -0.681945
-11.5884 0 -14.0204
1.09501 0 1.98678
-61.524 0 16.2404
25.9342 0 63.4939
3.1871 0 3.7363
-21.4024 0 13.065
27.2069 0 -26.7519
-29.7377 0 -18.1433
93.2318 0 -132.955
3.00169 0 3.7118
26.1116 0 10.9832
-8.22708 0 18.3153
-12.9536 0 -9.91222
9.09405 0 -14.7193
24.7165 0 -70.7455
-44.5491 0 91.7296
5.83203 0 -11.5849
-0.0640932 0 -14.845
9.63127 0 5.39561
-35.9908 0 43.8911
21.3924 0 39.5756
-7.44145 0 -7.04984
-9.74382 0 21.7217
-110.579 0 -28.8293
80.684 0 78.8056
-33.9287 0 -1.05502
-0.768218 0 5.12692
-57.4515 0 -109.239
74.6418 0 80.5686
-16.9053 0 20.7308
-27.0078 0 34.7326
-32.5351 0 18.1969
32.0539 0 99.5429
-13.465 0 -12.3188
-19.889 0 34.506
9.111 0 -0.698359
-13.1007 0 14.1614
48.0012 0 -40.0437
15.984 0 -7.34758
-6.46149 0 41.9058
15.2351 0 -28.458
0 0 0
1.03718 0 -0.767563
5.98341 0 10.0766
-12.8651 0 0.428585
-5.19191 0 -9.03966
6.80082 0 21.7672
-37.1795 0 -9.76224
14.6617 0 37.8837
22.0701 0 -19.1125
1.68005 0 -2.89819
-3.64146 0 5.51348
-52.4387 0 31.6656
17.7849 0 4.94928
10.876 0 16.6899
-18.3611 0 9.62446
3.94839 0 -9.77579
-32.4554 0 -11.4772
10.0059 0 134.904
-45.6817 0 0.775885
27.8472 0 -24.1655
40.0106 0 14.8173
3.32445 0 -22.3842
-37.6835 0 -44.7639
-10.8848 0 12.9284
-7.76448 0 39.6613
83.9847 0 -46.2962
4.2835 0 -45.3903
4.18009 0 -1.93346