# vtk DataFile Version 3.0
SiWiRVisFile
ASCII
DATASET UNSTRUCTURED_GRID
POINTS 1600 DOUBLE
75.3623 100 71.7428
73.255 100 71.7823
74.387 100 72.3289
76.4367 100 71.895
77.4988 100 72.6314
78.4177 100 73.1547
79.4238 100 72.6884
80.5203 100 73.2621
81.5251 100 73.7801
80.5593 100 72.1475
93.7508 100 61.2643
92.6411 100 61.4672
93.1531 100 62.3992
91.6651 100 60.9067
80.3632 100 63.1144
88.975 100 55.7623
91.6061 100 53.7184
89.0441 100 51.4832
83.6756 100 42.498
94.3815 100 46.9835
108.181 100 19.8688
107.923 100 18.8691
107.28 100 17.9392
108.321 100 16.5438
106.768 100 21.0138
111.802 100 20.0678
110.814 100 11.1949
116.142 100 12.2125
109.989 100 14.9455
110.067 100 13.601
111.676 100 13.0937
112.748 100 12.9474
110.607 100 12.5786
113.758 100 12.471
114.479 100 16.8291
115.992 100 21.2156
116.237 100 16.0743
115.409 100 19.4625
114.308 100 19.5074
115.084 100 20.6759
133.872 100 48.9666
140.817 100 42.498
131.972 100 51.0864
133.532 100 52.5437
135.565 100 51.1257
135.304 100 65.7924
133.675 100 61.5006
133.471 100 63.7324
132.712 100 61.1853
132.679 100 62.3762
143.249 100 72.2673
141.944 100 73.7507
143.076 100 73.3894
144.202 100 72.9006
146.066 100 73.1246
147.154 100 72.7196
148.298 100 72.009
150.729 100 72.439
151.938 100 72.0311
149.82 100 71.8194
72.2951 100 72.5157
73.4278 100 72.8283
75.5007 100 72.7706
76.5869 100 73.4049
77.5891 100 73.837
79.642 100 73.8785
80.5999 100 74.4369
81.5969 100 75.0294
82.7252 100 74.3083
83.6446 100 74.7744
84.7114 100 74.3637
92.5784 100 60.4049
91.708 100 62.0284
91.3856 100 58.176
89.6259 100 54.9301
91.0714 100 59.2755
91.3538 100 52.5558
90.3068 100 51.9273
91.9891 100 51.0812
95.6425 100 48.4019
106.887 100 19.927
94.7742 100 28.5421
107.492 100 34.1494
108.601 100 17.8289
109.008 100 18.8301
112.284 100 19.0506
113.303 100 18.3231
112.155 100 18.0544
105.54 100 5.45092
111.135 100 14.0536
112.435 100 14.0012
119.554 100 5.55474
113.496 100 16.1951
115.846 100 15.0461
115.617 100 18.3368
115.635 100 17.194
114.25 100 14.8662
119.134 100 34.2783
129.766 100 28.4709
116.291 100 20.1038
128.261 100 48.6794
130.186 100 48.7174
133.178 100 50.0146
135.026 100 52.269
133.379 100 60.2905
133.598 100 54.413
132.141 100 57.0623
133.752 100 62.5694
131.535 100 60.9566
139.804 100 74.5639
140.892 100 74.4288
141.915 100 74.9751
142.816 100 74.4212
144.12 100 74.003
145.164 100 73.6158
147.088 100 73.7672
148.143 100 73.2885
149.207 100 72.741
151.613 100 73.1384
152.965 100 72.5616
72.5616 100 73.5438
73.5711 100 74.0237
74.6719 100 73.5072
75.6438 100 73.9942
76.7016 100 74.4938
78.5807 100 74.3079
79.5269 100 74.9268
80.6769 100 75.6274
81.6579 100 76.0984
82.765 100 75.5215
84.7353 100 75.4622
83.5567 100 77.0182
85.8705 100 76.0586
92.413 100 59.2746
90.3167 100 58.09
92.6382 100 55.7521
92.7299 100 53.4258
92.3625 100 52.4369
94.158 100 49.744
94.541 100 48.0459
95.3557 100 47.1795
104.677 100 34.6223
106.506 100 34.6258
106.715 100 36.2259
94.0755 100 31.8245
107.351 100 35.3914
107.431 100 32.8229
106.649 100 33.517
111.971 100 14.9506
112.569 100 15.9133
113.127 100 14.9359
113.681 100 13.7825
121.602 100 34.9836
115.671 100 30.9705
118.126 100 34.01
120.49 100 34.9823
118.905 100 35.3678
119.958 100 36.0404
121.092 100 36.2076
127.289 100 47.7329
134.332 100 50.0833
131.024 100 50.2384
134.361 100 51.3419
133.251 100 51.3277
132.48 100 54.7955
132.374 100 55.8806
132.191 100 60.1549
139.362 100 75.5082
139.716 100 76.5873
140.542 100 75.5435
141.579 100 76.0141
142.784 100 75.6243
143.738 100 75.1202
145.069 100 74.6801
146.023 100 74.2804
148.031 100 74.3924
149.061 100 73.8168
150.192 100 73.4435
151.219 100 74.1376
152.451 100 73.8116
72.6215 100 74.6668
73.6066 100 75.137
74.5705 100 74.6707
75.6735 100 75.1135
77.8053 100 74.9719
78.6864 100 75.6067
79.6058 100 76.1139
80.4707 100 76.8213
82.5806 100 76.6268
83.8087 100 75.9646
83.5667 100 78.2226
84.7215 100 76.6549
86.2716 100 75.0507
92.2553 100 57.4205
90.9716 100 57.1502
89.9186 100 56.933
92.3715 100 54.7436
91.4035 100 54.9884
93.557 100 52.6658
93.2387 100 51.7206
93.4878 100 48.4539
96.5654 100 47.7092
105.533 100 33.9307
104.117 100 38.2112
105.889 100 35.4733
105.937 100 36.8965
108.371 100 37.4177
109.699 100 36.7626
108.361 100 33.3372
112.736 100 17.1076
114.89 100 15.8338
112.457 100 29.5949
116.051 100 36.6438
116.982 100 36.1244
118.147 100 36.3527
120.25 100 37.0828
119.159 100 36.7166
119.238 100 33.1629
127.139 100 48.8514
129.72 100 50.6773
130.445 100 51.6333
132.651 100 53.7938
131.597 100 54.3113
131.307 100 55.3443
131.197 100 56.4289
132.927 100 59.3734
131.976 100 58.6022
138.604 100 74.3515
139.415 100 77.6021
140.885 100 77.0232
141.924 100 77.0689
142.894 100 76.6371
143.933 100 76.2071
144.936 100 75.7867
145.965 100 75.3366
146.946 100 74.7936
149.081 100 74.9667
150.241 100 74.7466
151.091 100 75.3462
152.131 100 74.9029
72.6171 100 75.8022
73.7583 100 76.2202
74.7029 100 75.6792
76.7919 100 75.6267
77.7193 100 76.2536
78.6654 100 76.8686
79.6462 100 77.3882
80.6495 100 77.923
81.6169 100 77.2802
82.5805 100 77.7524
83.8259 100 79.2338
86.78 100 77.39
87.126 100 76.3306
94.5862 100 55.1171
91.6622 100 56.1378
90.3949 100 56.0056
95.0724 100 54.1263
94.6318 100 52.9956
94.1306 100 50.8463
95.5007 100 51.6413
95.1958 100 50.6236
102.079 100 43.9267
105.115 100 37.6575
107.324 100 38.1939
107.154 100 37.1789
108.486 100 38.557
109.371 100 37.907
110.459 100 37.7942
107.981 100 36.3208
110.662 100 19.5193
109.574 100 20.0795
117.023 100 33.8556
112.909 100 35.2286
114.908 100 37.3262
116.955 100 37.1763
117.674 100 35.2248
118.362 100 37.456
118.22 100 38.6217
123.765 100 44.4691
129.444 100 47.6879
129.003 100 49.703
129.352 100 51.6651
132.452 100 52.1166
130.487 100 54.1319
129.378 100 54.2449
130.711 100 58.7875
131.114 100 57.6952
138.668 100 76.555
138.81 100 78.8807
140.987 100 80.0355
141.245 100 78.0398
142.712 100 77.8185
143.768 100 77.4889
144.771 100 76.9433
145.728 100 76.4266
146.865 100 76.115
148.13 100 75.5742
150.069 100 75.8123
150.915 100 76.5764
151.953 100 76.0633
72.8515 100 76.9949
73.8279 100 77.3772
74.9376 100 76.7771
75.862 100 76.2551
76.8012 100 76.8939
77.8336 100 77.5581
78.5584 100 78.5376
79.6867 100 78.503
80.755 100 79.0982
81.6896 100 78.383
82.7402 100 78.9313
84.509 100 77.6939
86.5416 100 78.4351
86.11 100 73.8177
89.2431 100 75.3967
93.4299 100 54.9113
95.8418 100 55.1018
97.0577 100 55.0112
96.1268 100 53.8682
94.3409 100 51.9367
96.3171 100 50.7483
97.3706 100 48.6874
102.606 100 42.7333
103.451 100 41.2086
106.206 100 37.9802
106.373 100 38.9705
107.757 100 40.3066
109.664 100 38.9535
111.48 100 38.1597
110.603 100 36.2039
114.958 100 36.221
113.63 100 36.0989
115.9 100 37.8381
114.922 100 38.5487
116.994 100 38.2905
119.493 100 37.7373
119.472 100 38.7832
124.357 100 43.0776
126.745 100 49.8151
127.84 100 49.6591
128.691 100 50.7968
131.713 100 53.1649
128.38 100 54.8425
129.214 100 55.7418
130.179 100 55.1937
138.168 100 75.5064
141.715 100 69.7558
138.66 100 80.2412
140.212 100 78.4725
142.74 100 78.9805
143.751 100 78.6715
144.616 100 79.265
144.781 100 78.1593
145.863 100 77.5829
146.813 100 77.161
147.933 100 76.6981
148.922 100 76.2171
149.772 100 76.9336
150.633 100 77.6984
151.801 100 77.2069
71.2663 100 77.1856
72.7604 100 78.0864
74.8133 100 77.9568
75.805 100 77.4107
76.7598 100 77.972
77.118 100 80.1448
78.1575 100 79.5548
79.7759 100 79.8705
80.9312 100 80.1696
81.9877 100 79.7237
86.3895 100 79.552
85.7412 100 77.5211
87.4659 100 79.9705
87.7271 100 75.2501
93.7649 100 56.04
94.0226 100 53.9527
95.2955 100 56.089
98.2418 100 54.7174
95.7333 100 52.6815
96.6697 100 51.733
95.9507 100 49.5324
99.9599 100 49.6488
103.641 100 43.2366
105.204 100 38.7075
110.393 100 42.3569
108.601 100 39.6566
104.318 100 44.1618
109.588 100 40.1163
103.93 100 45.3185
105.609 100 43.9056
120.259 100 44.9028
117.722 100 44.885
115.299 100 39.8683
117.085 100 43.7534
117.238 100 41.2693
116.048 100 38.8411
117.419 100 39.45
121.349 100 44.64
123.622 100 45.5665
127.656 100 50.7296
128.216 100 51.8523
129.719 100 52.8438
127.902 100 53.9287
127.895 100 55.831
130.047 100 56.447
129.934 100 57.593
137.413 100 74.4918
131.379 100 76.0809
139.713 100 79.4933
142.488 100 80.1458
143.646 100 79.8546
144.642 100 80.3016
145.662 100 79.6937
146.904 100 78.7247
147.916 100 79.2318
147.559 100 77.8639
148.746 100 77.4508
149.618 100 78.0044
151.764 100 78.2741
152.912 100 77.2063
71.7103 100 78.4415
72.8553 100 79.1356
73.9528 100 78.6121
74.8402 100 79.3836
75.8181 100 78.6726
75.9819 100 79.8896
76.9393 100 79.0483
78.9259 100 80.5136
80.2413 100 81.0713
81.3767 100 81.2613
82.468 100 80.9114
82.0999 100 81.9845
85.2477 100 78.5224
84.815 100 79.5579
83.2517 100 82.3487
90.1732 100 78.0811
94.6194 100 58.4474
96.3885 100 56.102
98.5273 100 53.7273
97.2871 100 53.9715
97.4545 100 52.8653
97.4975 100 51.0941
103.186 100 44.183
104.494 100 39.6034
107.517 100 39.2988
109.604 100 41.352
106.69 100 40.2019
103.544 100 46.777
105.586 100 45.977
107.511 100 46.8256
119.317 100 44.5958
120.853 100 46.0406
121.86 100 46.6292
118.447 100 41.4076
117.745 100 42.3354
118.006 100 40.4276
118.676 100 39.6276
122.646 100 44.548
126.026 100 50.6076
128.632 100 53.0157
127.643 100 52.7284
126.429 100 52.4737
126.838 100 55.6283
128.97 100 56.7944
130.94 100 74.9467
141.515 100 82.0363
140.767 100 81.1768
139.65 100 80.55
142.083 100 81.1219
142.677 100 82.1016
143.279 100 81.1795
145.68 100 80.8132
146.75 100 81.1459
146.781 100 79.8897
148.776 100 79.9885
148.68 100 78.5592
149.787 100 79.3537
150.777 100 78.8228
151.713 100 79.3691
152.788 100 78.8453
71.4835 100 79.6773
72.5704 100 80.1218
73.815 100 79.7209
74.9422 100 80.543
76.0672 100 82.2982
73.5082 100 82.7804
76.0798 100 80.9344
77.9708 100 81.0879
79.1787 100 81.5543
78.232 100 82.1021
79.9649 100 82.3221
80.5714 100 83.5281
81.0323 100 82.4599
81.826 100 83.3976
83.7494 100 80.7141
87.5345 100 78.1349
96.1978 100 58.2059
95.9105 100 57.1283
99.4202 100 54.3256
99.8415 100 51.6112
97.7082 100 50.0529
[...]
POINT_DATA 1600
SCALARS mass double
LOOKUP_TABLE default
1
1
1
1
1
1
1
1
1
1
1
1
1
1
1
1
1
1
1
1
1
1
1
1
1
1
1
1
1
1
1
1
1
1
1
1
1
1
1
1
1
1
1
1
1
1
1
1
1
1
1
1
1
1
1
1
1
1
1
1
1
1
1
1
1
1
1
1
1
1
1
1
1
1
1
1
1
1
1
1
1
1
1
1
1
1
1
1
1
1
1
1
1
1
1
1
1
1
1
1
1
1
1
1
1
1
1
1
1
1
1
1
1
1
1
1
1
1
1
1
1
1
1
1
1
1
1
1
1
1
1
1
1
1
1
1
1
1
1
1
1
1
1
1
1
1
1
1
1
1
1
1
1
1
1
1
1
1
1
1
1
1
1
1
1
1
1
1
1
1
1
1
1
1
1
1
1
1
1
1
1
1
1
1
1
1
1
1
1
1
1
1
1
1
1
1
1
1
1
1
1
1
1
1
1
1
1
1
1
1
1
1
1
1
1
1
1
1
1
1
1
1
1
1
1
1
1
1
1
1
1
1
1
1
1
1
1
1
1
1
1
1
1
1
1
1
1
1
1
1
1
1
1
1
1
1
1
1
1
1
1
1
1
1
1
1
1
1
1
1
1
1
1
1
1
1
1
1
1
1
1
1
1
1
1
1
1
1
1
1
1
1
1
1
1
1
1
1
1
1
1
1
1
1
1
1
1
1
1
1
1
1
1
1
1
1
1
1
1
1
1
1
1
1
1
1
1
1
1
1
1
1
1
1
1
1
1
1
1
1
1
1
1
1
1
1
1
1
1
1
1
1
1
1
1
1
1
1
1
1
1
1
1
1
1
1
1
1
1
1
1
1
1
1
1
1
1
1
1
1
1
1
1
1
1
1
1
1
1
1
1
1
1
1
1
1
1
1
1
1
1
1
1
1
1
1
1
1
1
1
1
1
1
1
1
1
1
1
1
1
1
1
1
1
1
1
1
1
1
1
1
1
1
1
1
1
1
1
1
1
1
1
1
1
1
1
1
1
1
1
1
1
1
1
1
1
1
1
1
1
1
1
1
1
1
1
1
1
1
1
1
1
1
1
1
1
1
1
1
1
1
1
1
1
1
1
1
1
1
1
1
1
1
1
1
1
1
1
1
1
1
1
1
1
1
1
1
1
1
1
1
1
1
1
1
1
1
1
1
1
1
1
1
1
1
1
1
1
1
1
1
1
1
1
1
1
1
1
1
1
1
1
1
1
1
1
1
1
1
1
1
1
1
1
1
1
1
1
1
1
1
1
1
1
1
1
1
1
1
1
1
1
1
1
1
1
1
1
1
1
1
1
1
1
1
1
1
1
1
1
1
1
1
1
1
1
1
1
1
1
1
1
1
1
1
1
1
1
1
1
1
1
1
1
1
1
1
1
1
1
1
1
1
1
1
1
1
1
1
1
1
1
1
1
1
1
1
1
1
1
1
1
1
1
1
1
1
1
1
1
1
1
1
1
1
1
1
1
1
1
1
1
1
1
1
1
1
1
1
1
1
1
1
1
1
1
1
1
1
1
1
1
1
1
1
1
1
1
1
1
1
1
1
1
1
1
1
1
1
1
1
1
1
1
1
1
1
1
1
1
1
1
1
1
1
1
1
1
1
1
1
1
1
1
1
1
1
1
1
1
1
1
1
1
1
1
1
1
1
1
1
1
1
1
1
1
1
1
1
1
1
1
1
1
1
1
1
1
1
1
1
1
1
1
1
1
1
1
1
1
1
1
1
1
1
1
1
1
1
1
1
1
1
1
1
1
1
1
1
1
1
1
1
1
1
1
1
1
1
1
1
1
1
1
1
1
1
1
1
1
1
1
1
1
1
1
1
1
1
1
1
1
1
1
1
1
1
1
1
1
1
1
1
1
1
1
1
1
1
1
1
1
1
1
1
1
1
1
1
1
1
1
1
1
1
1
1
1
1
1
1
1
1
1
1
1
1
1
1
1
1
1
1
1
1
1
1
1
1
1
1
1
1
1
1
1
1
1
1
1
1
1
1
1
1
1
1
1
1
1
1
1
1
1
1
1
1
1
1
1
1
1
1
1
1
1
1
1
1
1
1
1
1
1
1
1
1
1
1
1
1
1
1
1
1
1
1
1
1
1
1
1
1
1
1
1
1
1
1
1
1
1
1
1
1
1
1
1
1
1
1
1
1
1
1
1
1
1
1
1
1
1
1
1
1
1
1
1
1
1
1
1
1
1
1
1
1
1
1
1
1
1
1
1
1
1
1
1
1
1
1
1
1
1
1
1
1
1
1
1
1
1
1
1
1
1
1
1
1
1
1
1
1
1
1
1
1
1
1
1
1
1
1
1
1
1
1
1
1
1
1
1
1
1
1
1
1
1
1
1
1
1
1
1
1
1
1
1
1
1
1
1
1
1
1
1
1
1
1
1
1
1
1
1
1
1
1
1
1
1
1
1
1
1
1
1
1
1
1
1
1
1
1
1
1
1
1
1
1
1
1
1
1
1
1
1
1
1
1
1
1
1
1
1
1
1
1
1
1
1
1
1
1
1
1
1
1
1
1
1
1
1
1
1
1
1
1
1
1
1
1
1
1
1
1
1
1
1
1
1
1
1
1
1
1
1
1
1
1
1
1
1
1
1
1
1
1
1
1
1
1
1
1
1
1
1
1
1
1
1
1
1
1
1
1
1
1
1
1
1
1
1
1
1
1
1
1
1
1
1
1
1
1
1
1
1
1
1
1
1
1
1
1
1
1
1
1
1
1
1
1
1
1
1
1
1
1
1
1
1
1
1
1
1
1
1
1
1
1
1
1
1
1
1
1
1
1
1
1
1
1
1
1
1
1
1
1
1
1
1
1
1
1
1
1
1
1
1
1
1
1
1
1
1
1
1
1
1
1
1
1
1
1
1
1
1
1
1
1
1
1
1
1
1
1
1
1
1
1
1
1
1
1
1
1
1
1
1
1
1
1
1
1
1
1
1
1
1
1
1
1
1
1
1
1
1
1
1
1
1
1
1
1
1
1
1
1
1
1
1
1
1
1
1
1
1
1
1
1
1
1
1
1
1
1
1
1
1
1
1
1
1
1
1
1
1
1
1
1
1
1
1
1
1
1
1
1
1
1
1
1
1
1
1
1
1
1
1
1
1
1
1
1
1
1
1
1
1
1
1
1
1
1
1
1
1
1
1
1
1
1
1
1
1
1
1
1
1
1
1
1
1
1
1
1
1
1
1
1
1
1
1
1
1
1
1
1
1
1
1
1
1
1
1
1
1
1
1
1
1
1
1
1
1
1
1
1
1
1
1
1
1
1
1
1
1
1
1
1
1
1
1
1
1
1
1
1
1
1
1
1
1
1
1
1
1
1
1
1
1
1
1
1
1
1
1
1
1
1
1
1
1
1
1
1
1
1
1
1
1
1
1
1
1
1
1
1
1
1
1
1
1
1
1
1
1
1
1
1
1
1
1
1
1
1
1
1
1
1
1
1
1
1
1
1
1
1
1
1
1
1
1
1
1
1
1
1
1
1
1
1
1
1
1
1
1
1
1
1
1
1
1
1
1
1
1
1
1
1
1
1
1
1
1
1
1
1
1
1
1
1
1
1
1
1
1
1
1
1
1
VECTORS force double
-26.6275 0 -53.6177
-2.93258 0 -17.9808
20.5367 0 2.41572
15.9787 0 23.132
-47.1062 0 -3.29061
50.3358 0 19.0999
25.6397 0 12.6595
9.38849 0 -3.73175
4.00948 0 17.8188
-10.7688 0 5.44723
-13.0986 0 5.95215
-0.590182 0 -4.96924
13.3564 0 13.3481
-42.5035 0 21.4139
0 0 0
-11.1658 0 34.0295
14.2105 0 3.73141
9.5905 0 3.37321
0 0 0
-135.634 0 -45.0746
17.4314 0 53.8014
-28.9973 0 -66.812
14.1649 0 0.86657
1.19801 0 12.7272
0.251979 0 9.64317
-10.3774 0 -6.95246
-0.956913 0 8.91716
-0.259184 0 0.0281135
6.82322 0 -14.1507
12.9709 0 5.99266
-17.6956 0 1.13894
25.2927 0 0.576021
9.40416 0 7.16947
0.189892 0 11.0746
-5.71399 0 17.4714
31.7645 0 10.5499
-13.4043 0 16.7389
-4.25496 0 -0.095551
-4.12038 0 2.40807
-22.9819 0 -41.3784
-2.26318 0 20.9316
0 0 0
3.32714 0 -2.8807
-5.28285 0 -15.3774
-20.0138 0 10.5619
0 0 0
74.4295 0 -0.223559
0.364996 0 -14.7912
-101.928 0 -24.7178
-2.65652 0 -18.021
3.69748 0 8.42069
-5.14449 0 11.4167
19.1583 0 -24.6687
-4.56098 0 5.09111
76.8097 0 -19.6824
8.2138 0 -39.3447
2.16151 0 23.2809
12.3815 0 8.73112
-7.37553 0 15.5411
-7.35495 0 -3.98543
11.6409 0 -33.1802
-10.0913 0 54.1435
20.8947 0 60.5272
-11.8018 0 -33.3321
-9.34113 0 8.46743
-31.1629 0 -38.4833
3.30343 0 10.8963
18.1587 0 -44.5009
-75.5947 0 -14.6901
67.1481 0 50.5381
1.40275 0 -5.20992
45.7764 0 -52.8736
-4.34209 0 6.71074
31.597 0 9.83057
30.8968 0 -18.7107
9.15486 0 -9.66655
-89.9025 0 13.077
2.57452 0 2.58157
7.69054 0 16.2573
-1.8217 0 -8.62316
17.2467 0 -16.8304
0 0 0
43.2212 0 13.9432
-26.0633 0 -15.1181
19.3127 0 32.4808
21.7257 0 102.818
-19.2151 0 -2.00308
-6.89716 0 -103.228
0 0 0
3.22392 0 11.3778
13.0927 0 -25.8916
0 0 0
209.268 0 57.4545
-16.1726 0 0.643908
-3.13854 0 1.86418
-8.02121 0 -13.462
-2.44126 0 1.81252
50.8487 0 15.6691
0 0 0
-2.18526 0 16.2054
11.6177 0 -22.9362
-10.9712 0 -3.52629
12.0512 0 5.72049
-3.70888 0 -14.1003
25.9137 0 78.7491
-13.5563 0 1.30332
-12.4917 0 -3.31029
9.7389 0 34.204
-23.1467 0 47.1455
6.79933 0 -34.7431
24.8367 0 7.46739
-47.8116 0 -14.1415
42.3856 0 28.4734
-17.4837 0 18.9659
-75.3791 0 -6.7685
-4.72363 0 -16.8431
-27.5838 0 -33.8881
-4.21413 0 -3.23955
-8.91615 0 -39.9847
-16.6341 0 8.73021
9.29672 0 29.8572
15.8977 0 -9.81883
-35.7397 0 -3.82808
6.80791 0 6.33487
-10.0777 0 24.1715
74.4692 0 -46.624
24.0458 0 36.1729
-39.5389 0 -0.919843
-9.19806 0 24.697
-12.6097 0 -11.5866
36.3994 0 0.357429
40.5638 0 48.429
-13.6017 0 25.5414
-13.9488 0 1.19887
-18.3703 0 -11.5064
58.1409 0 26.9134
11.0436 0 48.349
83.8916 0 -47.079
7.49404 0 -8.52094
16.3875 0 19.6421
137.357 0 50.5803
1.02984 0 8.28738
11.1642 0 -30.1665
21.6646 0 -49.3793
0 0 0
16.5581 0 -46.9915
7.57157 0 -34.3232
-72.5425 0 11.9148
-14.3843 0 23.9572
-200.782 0 -55.0538
-3.46073 0 -5.70732
-20.6573 0 5.09197
-1.69778 0 10.4567
0 0 0
-40.2202 0 -2.44858
-12.4009 0 16.5154
-7.13818 0 22.5691
27.6725 0 -58.9991
-15.0542 0 -10.1433
7.33573 0 9.72758
-10.2532 0 6.1722
-3.47689 0 14.2879
11.6704 0 -6.2777
-9.92716 0 -3.35394
76.5365 0 125.187
-24.1571 0 20.1851
35.0738 0 -25.5845
-31.851 0 51.8296
70.1787 0 -38.7768
-10.363 0 -4.65333
0.90311 0 12.4699
-15.2638 0 -64.949
27.0581 0 -26.2022
-73.8881 0 42.7774
45.9946 0 -76.7965
9.05341 0 15.5285
31.3661 0 41.9129
-1.88142 0 8.1865
-6.66175 0 31.3495
5.98833 0 10.0082
-3.48965 0 -5.60795
-9.89817 0 18.1384
21.0848 0 -110.775
10.881 0 3.454
-92.041 0 48.4039
-46.1337 0 4.45416
34.8058 0 22.5531
117.886 0 -78.6131
-11.2104 0 2.31047
-36.7292 0 -2.69984
-5.67998 0 -53.5439
8.38306 0 -39.6205
7.04463 0 -20.4779
-19.0904 0 -6.42661
28.2146 0 -14.5626
-41.1646 0 46.2701
79.9424 0 -96.3345
-116.232 0 36.993
14.8943 0 142.603
-39.9274 0 -127.451
7.12461 0 3.29022
-9.10115 0 10.0236
27.3309 0 1.90276
17.2893 0 9.53092
-24.8834 0 34.1789
-39.6967 0 40.1857
-20.3322 0 -0.954916
-29.8457 0 39.1364
16.357 0 22.8122
12.9924 0 -13.272
15.849 0 -25.7506
0 0 0
-77.6498 0 6.75033
37.6635 0 -52.1559
-31.1882 0 -24.3747
94.0998 0 -71.7866
-6.85141 0 -1.08693
-6.76138 0 5.37655
7.07766 0 -66.865
77.5908 0 -45.5307
5.14034 0 -7.90207
8.3049 0 -87.6018
-79.8536 0 -79.8555
5.54742 0 5.58377
0.231467 0 19.3699
-29.1755 0 -90.6006
-9.64175 0 0.252174
1.85176 0 23.0244
-13.5596 0 38.5565
-69.7303 0 -35.1965
12.8416 0 15.046
39.6745 0 83.8439
-24.0855 0 15.9219
-60.5757 0 -52.6056
9.04508 0 41.2099
35.4144 0 85.4673
5.87967 0 5.54949
-48.6758 0 -63.7778
43.8295 0 30.2648
-13.061 0 -1.0549
23.2191 0 6.74136
-16.892 0 30.4662
22.3654 0 78.2985
-1.79591 0 -3.89823
10.5522 0 -4.66914
18.5735 0 -30.3987
-94.4834 0 59.2312
8.3848 0 6.84041
-31.4504 0 -30.5841
30.5492 0 0.33511
-36.5125 0 31.7284
23.9219 0 -52.5544
-14.0339 0 -16.108
-5.6494 0 11.2602
-55.13 0 18.7968
32.6662 0 -47.2233
20.7878 0 -0.915194
11.3316 0 17.8244
-19.1783 0 17.8872
3.4338 0 -2.12801
3.6196 0 -41.3834
13.2039 0 -5.9377
-1.44819 0 -32.6607
17.7174 0 69.2675
4.91903 0 -27.2663
-18.1348 0 2.39686
-3.1619 0 -25.9589
-16.4055 0 -12.5899
-15.8325 0 15.9598
1.58696 0 8.56525
-1.60942 0 -15.6689
0.625555 0 5.08391
1.64865 0 1.74662
7.87802 0 10.5934
37.701 0 64.2449
18.1742 0 -0.120468
-12.3251 0 21.4314
-2.18496 0 -13.6583
1.3117 0 -8.89465
2.44101 0 13.4536
-7.80515 0 1.9815
-23.6165 0 61.2014
-0.541543 0 11.0785
8.70035 0 -6.92016
-9.53098 0 5.51169
11.5236 0 -15.5874
3.74688 0 -5.45014
-6.63159 0 -5.96349
21.3257 0 8.71667
-8.12832 0 8.29898
19.1408 0 9.31214
8.91355 0 14.4486
11.3156 0 -6.25312
-4.09996 0 18.5517
94.3568 0 58.3982
3.08557 0 -56.3794
-76.7038 0 -58.1411
-20.5494 0 25.7201
-18.9406 0 -15.0776
-4.68381 0 5.05001
-36.4173 0 -42.2366
47.2221 0 22.8709
-64.7647 0 12.2419
19.3747 0 -18.22
6.61154 0 -25.7912
-23.4695 0 7.53387
-0.40883 0 -23.151
9.22076 0 15.6271
-7.00549 0 -25.202
-9.29066 0 29.4089
-12.187 0 -14.403
9.2123 0 15.1824
-77.9138 0 33.9808
-3.81151 0 15.1617
-9.88931 0 17.5591
30.4981 0 14.2469
-2.95436 0 -17.2451
-7.89875 0 39.5951
20.0028 0 -0.134289
32.2458 0 -24.8206
-13.3601 0 -44.6458
-10.5365 0 0.810831
5.11161 0 15.0734
-1.34691 0 8.06807
-17.1141 0 -107.468
43.8108 0 95.5807
15.1288 0 73.0813
-13.8196 0 16.8356
12.6153 0 4.79928
25.7758 0 -11.2462
-0.0525826 0 -1.5129
10.6451 0 0.826011
0.0288405 0 -98.0225
20.4813 0 -8.58039
17.4204 0 4.32716
-94.1561 0 51.2452
-28.9022 0 29.6457
-2.46468 0 5.35011
1.62619 0 42.3239
25.6884 0 36.6015
-15.2971 0 -1.40728
5.03763 0 1.12066
48.2028 0 54.9808
-25.6016 0 -35.9868
-0.0240079 0 8.56387
12.0869 0 -10.067
0 0 0
-60.8336 0 -30.3253
-13.5125 0 -4.28736
-27.289 0 18.9318
-3.65636 0 -42.4824
32.0758 0 -28.7693
-4.29793 0 -21.0322
-65.2655 0 15.5602
-4.56548 0 -35.0219
-32.9518 0 6.11885
78.5386 0 41.594
16.2473 0 -18.7435
47.8005 0 -16.2299
-3.37196 0 -19.4262
10.1495 0 9.63595
19.1061 0 -31.5485
22.6487 0 -10.6381
11.5613 0 16.0567
0.127946 0 12.1933
0.847877 0 19.6123
-13.2081 0 24.8912
41.4853 0 -20.2779
0.614998 0 21.8206
-18.111 0 10.2876
0.714394 0 10.4081
-53.7907 0 1.09169
-0.376079 0 1.36932
-4.04837 0 18.8265
1.31295 0 -21.1429
-34.7012 0 -7.63627
-15.861 0 -2.21363
-23.5554 0 74.0976
8.75414 0 34.1161
-33.2671 0 84.5761
-2.623 0 9.79319
8.76253 0 3.2273
15.8159 0 -37.3577
15.7034 0 40.6544
-7.29668 0 -9.43729
15.521 0 -26.6677
-0.234151 0 6.4941
10.2029 0 7.94845
45.5632 0 -5.72438
-17.0783 0 13.6837
143.762 0 52.8829
2.76833 0 -6.5077
5.57164 0 -19.0895
7.85045 0 5.78406
19.7354 0 4.84563
-4.60676 0 103.221
9.36261 0 -11.6038
74.1378 0 117.039
9.91156 0 -30.995
-40.0963 0 -3.65846
29.1802 0 -46.3582
7.61996 0 -8.35368
-24.8498 0 -73.6798
30.4266 0 25.2306
17.4888 0 2.6678
7.37386 0 -9.53981
18.9301 0 9.53388
2.02377 0 -33.2927
10.6401 0 -20.6569
28.3442 0 -36.666
-26.8115 0 -12.2505
23.3729 0 66.786
-4.86335 0 1.46351
-13.8508 0 19.0957
-71.9601 0 67.3809
88.2807 0 33.1177
-53.4609 0 -44.7472
37.9028 0 65.6402
-3.08973 0 14.3538
-4.81413 0 1.61018
1.2218 0 8.66644
21.4831 0 -36.7152
-27.3331 0 3.18987
31.4392 0 -12.8896
-1.88074 0 -2.59076
-9.86408 0 -57.1992
-4.70036 0 14.2383
-28.0344 0 -13.3364
-10.2366 0 2.70931
-63.0582 0 -55.8571
-0.589176 0 -7.05207
56.7854 0 66.2569
11.3503 0 6.78312
53.0934 0 23.2489
-29.0308 0 -0.578403
-46.5585 0 -52.9875
2.71189 0 -3.1102
21.6311 0 -8.51213
-14.4983 0 -78.7785
17.1415 0 -21.5888
-1.92653 0 -2.43497
21.4817 0 -0.56163
-14.3355 0 41.2508
13.5782 0 -27.4514
-18.9202 0 -57.9508
6.01745 0 -4.19925
-12.8018 0 -22.1741
-2.38428 0 -26.1118
40.5613 0 -12.7024
-4.29786 0 -9.38895
-142.707 0 -24.6926
-3.78195 0 -4.61963
-17.0453 0 8.92684
-46.8923 0 66.4407
-0.774395 0 -12.7326
-37.9162 0 16.5419
36.1905 0 -41.0847
-5.93827 0 6.25361
-43.9937 0 7.45661
50.9125 0 17.3343
-99.977 0 26.5185
17.4908 0 -26.577
40.6899 0 27.8046
-8.49177 0 21.7176
-15.8387 0 -1.55485
-6.01943 0 0.867799
1.74846 0 -6.32961
77.059 0 42.9976
-2.37565 0 19.254
-113.351 0 -4.26049
6.23204 0 -13.8162
-9.97368 0 -4.7626
5.63237 0 2.53891
6.77053 0 5.21514
12.1239 0 -39.1202
49.8824 0 -38.6729
-69.3748 0 -40.0292
-18.765 0 -11.1769
0.260508 0 22.0487
-21.0112 0 4.52373
18.2234 0 -10.0374
-38.1529 0 46.6342
-26.3998 0 25.314
-9.36689 0 -82.0517
23.6945 0 -40.3266
1.77316 0 22.7005
20.0331 0 22.2056
7.46584 0 -58.6396
6.80802 0 4.55228
-0.633242 0 54.8202
-13.0403 0 7.00153
51.1204 0 -76.3705
34.0837 0 1.42082
-18.1102 0 0.858394
-6.87904 0 -5.11548
84.5411 0 6.328
-12.8862 0 23.5407
5.67656 0 -9.31637
2.94272 0 26.26
0.253522 0 -8.94087
6.47033 0 -28.4069
-45.2474 0 5.24248
-7.17253 0 -5.82087
9.09193 0 17.9595
5.50443 0 -4.37327
-35.0503 0 5.36933
-33.3675 0 -28.3555
-56.8921 0 -1.49382
23.1929 0 19.103
-5.03402 0 -13.3806
-63.5398 0 -89.5325
-24.8926 0 -9.23369
38.7018 0 10.6412
-11.8821 0 -2.13331
40.9046 0 -50.3525
-14.6259 0 14.0834
-11.8009 0 24.5273
-11.8068 0 -14.4398
-22.3571 0 36.9417
-2.65691 0 -1.05987
0.984204 0 9.55853
-11.7315 0 12.0954
10.6734 0 -37.3036
-21.0687 0 6.26163
-12.5737 0 -10.027
-0.232338 0 12.7025
-10.656 0 0.716735
7.40867 0 16.1731
108.554 0 2.79126
0.321749 0 0.791083
-20.1333 0 -11.8448
-17.9851 0 -10.54
-43.1756 0 -20.4684
3.09595 0 -22.8737
2.53358 0 -7.49506
-13.4374 0 36.3357
58.5226 0 -21.4224
62.1066 0 45.2438
-11.8377 0 2.58332
9.03418 0 10.5614
15.7826 0 -13.1326
0.865558 0 -51.542
15.2603 0 9.91136
-1.12172 0 8.99424
-5.88808 0 87.3686
-12.6784 0 23.5512
-7.90882 0 -21.79
24.8808 0 39.5427
30.5202 0 8.54388
-65.5543 0 -82.6301
59.9716 0 52.9355
9.51478 0 8.50757
-3.0139 0 48.9907
8.34235 0 -19.7428
-7.87715 0 -30.5745
3.57536 0 -3.368
17.1215 0 3.6742
17.3735 0 -8.76261
-14.2337 0 -2.72213
6.50935 0 -11.1475
-10.5324 0 -75.485
-5.35247 0 -3.03229
-4.9973 0 -3.80316
-2.68417 0 -10.7458
4.14122 0 29.3484
0.541334 0 9.72685
48.5504 0 44.64
17.1853 0 3.27066
-33.2201 0 -35.5183
7.03445 0 -6.86355
11.8844 0 6.57326
24.8895 0 45.7643
28.9562 0 -1.44182
7.48211 0 -19.7641
-11.0088 0 3.65147
14.2764 0 74.1596
17.2492 0 13.0896
-9.48033 0 47.1132
-7.10955 0 -19.0181
-15.1259 0 -5.95888
-39.4877 0 -34.8274
-25.0441 0 7.23936
-22.5791 0 -3.57678
1.7196 0 11.144
83.5372 0 18.3557
8.00145 0 -4.77246
-42.1237 0 10.6385
41.6456 0 -36.9763
-4.01111 0 8.43551
-0.538009 0 4.58349
46.9409 0 -30.6894
-22.008 0 -28.113
21.502 0 31.3106
9.54568 0 -6.13341
-16.8042 0 71.1597
-10.8044 0 -18.0871
-4.53269 0 -4.32368
44.9218 0 -25.5424
-57.8576 0 26.9283
26.3385 0 -50.0774
11.2424 0 25.8585
0.0692014 0 3.18974
9.76577 0 12.8938
-4.51486 0 6.06578
12.9841 0 9.80922
-2.76646 0 -45.266
18.9888 0 -14.271
-31.6537 0 32.0054
-20.6738 0 -33.7032
-22.8509 0 28.8793
-12.1879 0 -24.3043
-53.6212 0 36.3884
11.075 0 -15.9154
-37.2948 0 -15.5551
7.1744 0 -12.161
18.3968 0 17.843
-9.33397 0 8.11758
-21.0458 0 20.1785
-13.9655 0 -5.38338
6.88205 0 -27.6799
5.21879 0 4.78774
-35.263 0 29.91
10.5486 0 62.2024
6.37367 0 -1.1612
14.226 0 -35.3352
-3.54907 0 9.83363
-3.19003 0 11.968
-55.5127 0 6.88381
-9.15445 0 22.5164
63.9555 0 7.72003
-16.1929 0 -12.5227
27.0836 0 4.9434
-1.64748 0 -24.0343
60.7017 0 0.9679
-5.18447 0 26.1846
1.1184 0 -15.9463
13.7519 0 -1.03788
-3.24248 0 14.2192
3.89842 0 18.5679
12.7323 0 6.39873
2.38116 0 -6.98954
5.1097 0 -23.926
-5.26252 0 6.46306
4.24657 0 10.5583
1.2135 0 1.14794
-5.45677 0 -4.44608
8.39708 0 7.20567
19.4548 0 32.3525
-6.24773 0 -50.0975
7.33519 0 28.0916
-22.0415 0 36.8161
2.7228 0 -7.45245
-37.2972 0 0.496877
46.9807 0 16.5136
-24.0839 0 -0.364855
15.0955 0 43.9738
-0.0225853 0 -13.9785
-9.24861 0 -96.2733
-15.9291 0 2.13449
-63.5138 0 140.835
4.1724 0 -1.1074
-16.265 0 -3.67974
0.659181 0 16.7089
0.306248 0 -9.96513
3.22258 0 4.20255
-34.3975 0 20.1028
21.0024 0 -13.9712
-11.1635 0 -15.6045
6.60212 0 20.4038
-0.817759 0 -39.1554
-9.1237 0 -3.29638
11.4842 0 30.9381
-15.61 0 -13.4279
-6.78277 0 -22.026
-203.455 0 16.162
-27.012 0 0.888914
15.3387 0 -1.0967
8.81429 0 0.149121
-15.9545 0 2.56442
35.3903 0 8.00033
16.1122 0 4.62647
-38.9307 0 -2.71961
-11.2109 0 -0.30937
6.3972 0 14.6277
32.2428 0 -26.9445
16.9255 0 -14.8643
9.4804 0 -17.2926
3.79675 0 -10.433
-5.04793 0 -6.25269
-16.1778 0 10.3847
-6.67919 0 8.19854
-30.5613 0 -46.8024
18.918 0 -0.978718
3.89571 0 14.8632
1.73108 0 -62.0442
-1.42871 0 -5.13743
15.627 0 -8.79317
3.28582 0 1.4534
-4.52642 0 -13.6469
0.839295 0 -11.6706
30.9466 0 15.8273
-11.5477 0 6.73168
-24.3672 0 -73.7314
-26.125 0 14.737
55.9764 0 13.5803
-5.9042 0 -16.4944
2.98902 0 -3.35522
-16.4832 0 14.9344
-58.3303 0 11.7944
10.0799 0 -74.2662
7.64805 0 2.32887
2.53616 0 50.1968
-86.874 0 -18.1865
16.2995 0 -45.7799
22.8164 0 59.5412
15.2574 0 -19.3955
-17.3911 0 -3.02194
-18.1769 0 -42.9246
-15.3634 0 13.9152
-7.72683 0 7.32401
17.1497 0 -3.19694
5.44521 0 -12.3939
17.7854 0 42.4375
18.5661 0 -12.3506
-98.9463 0 -37.3529
0.629258 0 -10.2238
27.283 0 -29.4018
44.8454 0 63.6169
-0.427248 0 17.0275
-16.7465 0 -1.06354
10.7036 0 25.4779
-6.51067 0 -10.552
-13.7471 0 -1.67218
-5.16889 0 6.46751
-6.92203 0 -9.46316
63.5552 0 39.955
1.8777 0 -21.1309
-9.94664 0 1.78565
-9.03446 0 -54.3422
-0.0463489 0 15.4727
11.6571 0 -0.443814
-43.705 0 1.81139
22.1594 0 -0.903763
-3.92339 0 4.8607
-3.89502 0 -10.4705
-17.3397 0 8.60441
11.7516 0 -15.0516
-8.53462 0 0.289507
3.11731 0 -14.2433
3.51327 0 -8.36938
-17.4033 0 -14.696
-35.9158 0 -14.6251
5.30861 0 -4.55224
9.77816 0 5.6093
8.41409 0 3.76302
-26.7601 0 -17.8239
-30.382 0 -17.5412
-7.69501 0 -32.7054
-15.2783 0 -9.96982
-19.008 0 -4.70456
-12.0924 0 50.4029
8.95041 0 108.673
-2.21118 0 -0.154737
2.29559 0 10.5089
2.24196 0 -0.568838
20.0558 0 2.8209
17.2154 0 -70.3427
3.465 0 0.157877
50.5064 0 48.3095
-12.6282 0 3.37423
43.6584 0 65.2484
5.26565 0 -9.08538
44.1299 0 51.286
-4.50156 0 -8.47587
33.34 0 -65.8503
4.79248 0 7.5526
68.2463 0 -59.323
-51.7862 0 -35.9844
17.9934 0 11.2134
14.5739 0 -21.9039
-16.8962 0 -8.81405
-5.3157 0 -23.5225
11.8011 0 -14.2173
-11.7917 0 27.2136
-10.9908 0 -15.3589
8.94271 0 36.3264
-21.2135 0 26.3505
0.675819 0 -26.3856
-19.4259 0 -56.3768
15.413 0 -20.7381
-19.8052 0 -28.6598
5.93198 0 13.2832
6.85062 0 -16.8601
10.6991 0 22.4523
2.20663 0 -6.59795
-0.335748 0 17.9698
56.9863 0 -173.482
4.42436 0 -2.09491
9.16937 0 -2.1649
23.0187 0 39.5021
-11.8353 0 -16.7595
-38.1604 0 -36.3121
11.485 0 16.9818
-3.73959 0 -56.9497
37.2404 0 8.99152
0.560725 0 -51.873
-0.217787 0 25.6515
-7.21513 0 41.3971
-1.38854 0 15.4079
-0.162299 0 -11.3786
-12.0568 0 11.9717
9.41178 0 16.3109
-27.0285 0 5.82786
0.953468 0 9.8406
6.60131 0 26.4825
-6.37115 0 -21.1507
-11.7443 0 0.788393
-11.833 0 10.3694
-40.187 0 -65.4772
-48.6234 0 41.2356
-29.6766 0 22.6768
80.0775 0 -51.5881
-0.698368 0 10.5834
-2.48085 0 10.5564
18.649 0 -8.33046
4.57547 0 -18.2757
-4.92015 0 -0.671777
10.3232 0 -17.045
-48.6898 0 3.98289
15.7122 0 -63.9518
-30.0593 0 -21.6627
-58.2523 0 74.6576
-51.273 0 9.02447
19.822 0 18.2459
24.134 0 -41.026
-28.2508 0 -46.9577
32.8772 0 -18.2382
4.14926 0 3.78128
-10.063 0 -31.6372
38.8797 0 95.5698
19.6691 0 5.84226
5.92899 0 -13.3275
-47.8451 0 -40.7546
-46.1612 0 18.2086
-16.8633 0 6.15079
0.42426 0 -28.763
100.337 0 58.5278
-16.2317 0 -4.3297
-34.9208 0 -12.1546
4.95151 0 72.1347
0.281426 0 36.4762
2.83002 0 0.0471752
-8.12185 0 27.6887
11.4708 0 -143.168
6.01925 0 3.15633
5.14781 0 5.4317
20.299 0 4.97125
-9.38545 0 1.35456
15.6888 0 2.54035
4.00415 0 -3.77468
21.817 0 -6.63245
-13.1326 0 -1.29807
-57.6966 0 -5.25536
12.3289 0 12.1466
2.17457 0 5.93279
9.46066 0 0.224393
-17.933 0 5.3754
0 0 0
1.55084 0 -4.02934
3.89502 0 10.4705
-6.23446 0 -14.0678
18.647 0 2.39131
30.655 0 12.7783
-2.99884 0 -4.2954
-19.1614 0 -11.1974
-8.78189 0 -4.71767
-0.00589602 0 18.6466
16.7876 0 26.7393
4.93704 0 -4.97825
23.6586 0 4.07999
-18.1308 0 6.36598
-28.3586 0 20.2219
-1.78861 0 -13.413
-8.90211 0 -15.4536
33.2829 0 1.82329
-5.67935 0 7.10626
-21.8726 0 59.1495
-10.8041 0 0.970143
16.0763 0 -34.2865
0.687211 0 2.50573
-7.19875 0 -12.9949
11.6519 0 25.2871
3.84956 0 12.8223
28.4292 0 -2.9852
-16.733 0 -22.1369