# vtk DataFile Version 3.0
SiWiRVisFile
ASCII
DATASET UNSTRUCTURED_GRID
POINTS 1600 DOUBLE
76.3956 100 72.6402
76.2068 100 73.7773
77.3233 100 74.1001
79.4956 100 73.6981
80.4955 100 74.2529
81.5187 100 74.6774
83.4091 100 74.1782
84.4587 100 74.7221
85.7008 100 75.1835
84.3854 100 73.5821
91.7605 100 71.7054
91.1916 100 70.8488
90.9154 100 72.4554
90.0727 100 70.6484
87.4346 100 69.788
90.378 100 61.9877
91.6023 100 61.833
93.2399 100 60.2892
90.162 100 56.0919
95.5353 100 59.1767
104.151 100 42.1994
106.218 100 42.3758
106.12 100 41.2317
107.175 100 41.8685
105.116 100 40.7382
110.762 100 42.0331
110.538 100 35.8493
111.524 100 34.6544
110.77 100 36.9691
111.768 100 36.439
112.9 100 36.4298
114.022 100 36.6493
112.667 100 34.9928
113.655 100 35.6882
113.83 100 42.2954
119.387 100 40.7519
117.314 100 41.8519
118.369 100 41.2395
118.262 100 42.3726
120.334 100 42.1875
129.236 100 58.7756
134.33 100 56.0919
130.869 100 60.4232
132.88 100 62.7379
133.825 100 62.1529
136.014 100 70.2059
134.958 100 69.8414
134.199 100 72.4306
133.397 100 70.6175
133.259 100 71.6677
140.243 100 73.5236
138.564 100 75.2
139.972 100 74.7832
140.952 100 74.3945
142.935 100 74.7327
143.921 100 74.3063
144.861 100 73.7045
147.165 100 74.0786
148.269 100 73.7061
148.105 100 72.5987
75.1576 100 74.4165
76.4938 100 74.9009
78.4036 100 74.3996
79.5391 100 74.8727
80.5401 100 75.4299
82.6137 100 75.0359
83.6019 100 75.4371
84.6772 100 75.8639
85.7317 100 76.3045
86.754 100 76.3811
87.9664 100 76.0295
91.8536 100 69.6632
89.9953 100 71.7321
91.2575 100 67.2886
92.6584 100 64.1252
90.623 100 69.5481
92.8114 100 61.5452
94.5586 100 60.3187
95.7796 100 60.2272
97.9602 100 60.0419
105.222 100 41.8381
97.7419 100 48.3361
106.338 100 50.4603
110.658 100 39.7341
108.393 100 41.4536
109.241 100 41.9335
109.851 100 40.8267
109.571 100 39.737
107.737 100 34.429
111.835 100 37.7744
113.073 100 37.5365
116.886 100 34.4646
114.361 100 39.0226
114.801 100 40.876
114.988 100 42.066
116.059 100 41.4857
113.717 100 40.0489
118.262 100 49.9261
126.75 100 48.3361
119.26 100 41.8495
126.378 100 59.775
128.367 100 60.4579
129.733 100 59.8761
132.279 100 61.2906
133.104 100 69.5951
132.25 100 63.6911
133.036 100 67.0023
134.324 100 71.3058
132.132 100 70.087
136.623 100 76.412
138.007 100 76.1504
138.957 100 76.5364
139.872 100 75.8931
140.882 100 75.5388
141.857 100 75.0806
143.849 100 75.4339
144.846 100 74.8611
146.077 100 74.4035
147.994 100 74.8636
149.281 100 74.406
75.5545 100 75.5271
76.6188 100 75.9459
77.5887 100 75.192
78.7294 100 75.5369
79.6287 100 76.1028
81.6584 100 75.7116
82.6912 100 76.2083
83.8292 100 76.6518
84.9006 100 77.2184
86.0834 100 77.3381
87.1057 100 77.3713
87.868 100 78.2479
89.5405 100 76.5859
91.4208 100 68.6448
92.1093 100 66.2219
93.1887 100 65.3389
92.8369 100 62.7928
93.7165 100 62.1584
94.8966 100 61.3909
97.2186 100 59.2109
98.3212 100 58.9255
104.399 100 51.6912
105.454 100 51.1265
106.437 100 51.8249
102.229 100 48.2142
107.496 100 50.5941
106.938 100 49.4794
105.284 100 49.6211
110.529 100 38.0011
111.29 100 38.8431
113.292 100 38.7079
114.232 100 37.7939
120.136 100 48.8419
117.151 100 49.8258
117.696 100 50.8103
121.08 100 49.5257
117.571 100 51.9041
118.546 100 51.5166
120.326 100 52.1912
125.68 100 58.7684
127.584 100 59.5395
130.05 100 60.9983
130.96 100 61.881
131.388 100 62.8811
132.025 100 65.1005
131.992 100 66.7019
133.146 100 68.2213
134.333 100 76.8812
136.434 100 77.5132
137.44 100 77.0985
138.518 100 77.4805
139.628 100 77.4292
140.579 100 76.7634
141.762 100 76.3069
142.755 100 75.8347
144.854 100 76.0919
145.721 100 75.524
146.971 100 75.1616
147.868 100 75.9046
148.929 100 75.511
75.6619 100 76.6438
76.7523 100 77.051
77.7659 100 76.2482
78.7171 100 76.7388
80.7588 100 76.4814
81.7998 100 76.7682
82.9343 100 77.2798
83.9634 100 78.0084
85.2434 100 78.3317
86.5209 100 78.4207
87.5781 100 79.2869
89.6435 100 77.6692
88.1758 100 77.1334
92.7462 100 68.6923
92.1672 100 67.8236
93.3699 100 66.4678
94.618 100 64.5032
93.6783 100 64.0618
94.4346 100 63.3217
95.3544 100 62.4937
96.176 100 61.6353
99.1048 100 59.7457
104.491 100 50.6138
105.902 100 55.6903
105.238 100 52.4416
105.893 100 53.8084
108.759 100 52.8286
110.253 100 52.9173
108.014 100 49.486
111.106 100 40.9764
113.403 100 41.1758
116.285 100 50.6842
115.481 100 51.4604
115.905 100 52.6264
118.189 100 52.8856
119.219 100 52.5915
119.759 100 53.6713
119.64 100 51.3095
125.17 100 60.0798
128.007 100 61.6472
129.389 100 62.3465
130.339 100 62.9868
131.233 100 63.9977
130.871 100 65.0702
130.899 100 66.1287
131.991 100 67.7601
132.173 100 68.8176
135.313 100 76.5806
135.921 100 78.9391
136.926 100 78.6322
138.042 100 78.4918
139.454 100 78.5136
140.491 100 78.2705
141.371 100 77.6218
142.573 100 77.0059
143.825 100 76.4707
145.77 100 76.7375
146.707 100 76.231
147.697 100 76.9505
148.822 100 76.6267
75.6971 100 77.7784
76.7043 100 78.0984
77.8155 100 77.381
79.8041 100 77.2657
80.9339 100 77.5195
82.0551 100 78.0039
83.0255 100 78.6935
84.2794 100 79.0885
85.2723 100 79.4403
86.4719 100 79.4866
87.0716 100 80.3994
89.9275 100 78.8992
90.9629 100 76.7479
94.626 100 66.5444
93.2933 100 67.6309
95.5887 100 65.0742
96.3106 100 64.3929
95.4628 100 63.6786
96.5859 100 62.738
97.4989 100 62.1675
97.0587 100 60.7595
102.952 100 59.2375
105.273 100 54.8147
107.258 100 53.6173
107.272 100 52.5323
108.267 100 53.9635
109.292 100 53.7992
110.255 100 54.2807
108.125 100 51.842
111.399 100 43.025
113.044 100 42.9876
116.531 100 51.7256
113.951 100 54.282
114.721 100 53.2485
116.101 100 53.7733
116.949 100 52.8072
117.19 100 54.0237
117.838 100 54.9674
121.294 100 58.8575
127.145 100 60.5939
126.825 100 61.7329
127.435 100 62.6369
129.172 100 63.3449
130.041 100 64.1464
128.825 100 65.199
130.859 100 68.4956
130.088 100 67.1069
134.998 100 77.8803
134.651 100 79.1928
137.348 100 80.6455
137.66 100 79.5
138.766 100 79.4118
140.204 100 79.2379
141.67 100 78.6868
142.633 100 78.0789
143.585 100 77.5076
144.725 100 77.2122
146.688 100 77.415
147.755 100 78.0593
148.821 100 77.7837
75.9419 100 78.9174
77.008 100 79.1677
77.971 100 78.4149
78.9525 100 77.871
79.8798 100 78.3348
80.9007 100 78.6462
81.9265 100 79.0285
82.5801 100 79.8395
83.6663 100 80.0816
84.7091 100 80.4756
85.831 100 80.4851
88.6668 100 79.2603
90.6121 100 79.9479
89.2466 100 75.4708
91.2327 100 75.281
94.4508 100 65.5182
96.5943 100 65.5157
97.4519 100 64.8978
97.219 100 63.7993
98.0006 100 63.102
98.2653 100 61.1328
101.064 100 60.5262
103.718 100 57.421
104.877 100 57.2127
106.649 100 54.5064
107.682 100 54.8167
108.233 100 55.769
108.841 100 54.9102
111.626 100 54.2107
111.223 100 52.3501
114.588 100 52.1575
112.962 100 54.6668
115.222 100 54.5963
115.755 100 55.5936
116.524 100 54.8749
118.989 100 54.7165
119.529 100 55.8802
121.014 100 57.8894
123.443 100 60.7129
125.947 100 60.9932
126.354 100 62.7306
128.294 100 64.1327
127.627 100 65.1839
127.888 100 66.2556
129.863 100 65.6705
133.248 100 74.7454
134.906 100 74.3337
133.972 100 80.0447
136.552 100 79.8516
138.451 100 80.4298
139.516 100 80.161
140.711 100 80.1648
141.723 100 79.7429
142.663 100 79.2276
143.637 100 78.6773
144.652 100 78.2225
145.682 100 77.8385
146.674 100 78.449
147.545 100 79.1274
148.564 100 78.8398
74.7917 100 79.4454
75.9147 100 79.9685
78.0173 100 79.5163
79.0915 100 79.0508
80.1089 100 79.4919
79.7803 100 81.8083
81.7873 100 80.5623
82.8258 100 81.1024
83.9374 100 81.2882
85.1819 100 81.4498
86.3704 100 81.6253
89.5985 100 80.1009
91.1895 100 81.3051
90.3889 100 75.8968
95.2843 100 67.5094
95.5987 100 66.1162
96.9352 100 67.1221
98.7681 100 65.1316
98.3937 100 64.0736
98.5096 100 62.1663
99.656 100 60.6802
102.058 100 59.9667
103.919 100 58.7492
107.162 100 55.7633
108.75 100 56.8139
109.756 100 55.4812
109.196 100 59.1917
110.913 100 55.3031
108.142 100 59.8357
109.221 100 60.5645
115.36 100 59.9682
115.98 100 59.0946
114.376 100 55.2837
114.857 100 58.9621
114.975 100 56.3894
116.057 100 56.7095
117.146 100 55.942
120.117 100 58.8056
122.034 100 59.6835
124.901 100 61.266
125.5 100 62.0959
126.938 100 63.6613
126.189 100 64.8978
127.031 100 67.0577
129.044 100 66.5095
129.206 100 67.7627
134.488 100 75.5536
131.619 100 81.905
135.545 100 80.0388
138.246 100 81.5307
139.24 100 81.2338
140.388 100 81.2288
141.793 100 80.9228
142.834 100 80.2934
144.796 100 80.8628
144.558 100 79.4249
145.698 100 78.9951
146.637 100 79.7171
148.636 100 79.962
149.657 100 79.3639
74.9565 100 80.5252
75.9667 100 81.0058
76.8574 100 80.2853
77.8047 100 80.7794
78.8645 100 80.2431
78.8074 100 81.3807
80.8563 100 81.2187
81.9164 100 81.7053
83.0926 100 82.1514
84.5148 100 82.4595
85.6157 100 82.5318
87.0857 100 82.7739
88.308 100 80.3024
87.9335 100 81.4738
88.2096 100 82.5752
91.7778 100 80.2199
96.672 100 68.2494
97.6135 100 66.0593
100.76 100 64.6591
99.5648 100 64.4793
99.0966 100 63.3121
99.5662 100 61.9371
104.138 100 59.7645
106.382 100 56.6419
107.63 100 56.8119
108.832 100 58
107.803 100 57.8584
105.76 100 60.5562
107.28 100 60.9704
109.497 100 62.4323
115.234 100 61.3831
118.364 100 60.6594
119.292 100 61.3716
116.262 100 57.8586
115.05 100 57.8304
117.051 100 57.0099
118.41 100 56.2278
120.746 100 59.7684
124.177 100 62.0015
125.579 100 63.5184
124.827 100 64.355
125.265 100 65.4944
126.807 100 65.9509
128.253 100 67.2881
132.288 100 80.8093
136.124 100 81.9975
137.2 100 81.7959
136.287 100 80.9983
137.182 100 82.8515
138.331 100 82.8038
139.423 100 82.4268
141.575 100 82.2888
142.48 100 81.757
143.612 100 81.1695
145.467 100 81.6025
145.734 100 80.2052
146.661 100 80.8916
147.637 100 80.2425
148.618 100 81.0027
149.635 100 80.433
74.9828 100 81.5811
75.9822 100 82.0988
76.9308 100 81.5194
77.8635 100 82.1744
78.8485 100 83.9919
77.6455 100 84.6761
79.0338 100 82.5664
80.844 100 82.3317
81.828 100 82.8563
80.9357 100 83.6125
82.7321 100 83.2883
85.1105 100 83.5423
86.2801 100 83.4756
87.3996 100 83.7964
89.0069 100 83.2942
91.1047 100 78.9558
97.6218 100 69.1293
97.7302 100 67.9731
99.8552 100 65.5382
100.809 100 66.6225
[...]
POINT_DATA 1600
SCALARS mass double
LOOKUP_TABLE default
1
1
1
1
1
1
1
1
1
1
1
1
1
1
1
1
1
1
1
1
1
1
1
1
1
1
1
1
1
1
1
1
1
1
1
1
1
1
1
1
1
1
1
1
1
1
1
1
1
1
1
1
1
1
1
1
1
1
1
1
1
1
1
1
1
1
1
1
1
1
1
1
1
1
1
1
1
1
1
1
1
1
1
1
1
1
1
1
1
1
1
1
1
1
1
1
1
1
1
1
1
1
1
1
1
1
1
1
1
1
1
1
1
1
1
1
1
1
1
1
1
1
1
1
1
1
1
1
1
1
1
1
1
1
1
1
1
1
1
1
1
1
1
1
1
1
1
1
1
1
1
1
1
1
1
1
1
1
1
1
1
1
1
1
1
1
1
1
1
1
1
1
1
1
1
1
1
1
1
1
1
1
1
1
1
1
1
1
1
1
1
1
1
1
1
1
1
1
1
1
1
1
1
1
1
1
1
1
1
1
1
1
1
1
1
1
1
1
1
1
1
1
1
1
1
1
1
1
1
1
1
1
1
1
1
1
1
1
1
1
1
1
1
1
1
1
1
1
1
1
1
1
1
1
1
1
1
1
1
1
1
1
1
1
1
1
1
1
1
1
1
1
1
1
1
1
1
1
1
1
1
1
1
1
1
1
1
1
1
1
1
1
1
1
1
1
1
1
1
1
1
1
1
1
1
1
1
1
1
1
1
1
1
1
1
1
1
1
1
1
1
1
1
1
1
1
1
1
1
1
1
1
1
1
1
1
1
1
1
1
1
1
1
1
1
1
1
1
1
1
1
1
1
1
1
1
1
1
1
1
1
1
1
1
1
1
1
1
1
1
1
1
1
1
1
1
1
1
1
1
1
1
1
1
1
1
1
1
1
1
1
1
1
1
1
1
1
1
1
1
1
1
1
1
1
1
1
1
1
1
1
1
1
1
1
1
1
1
1
1
1
1
1
1
1
1
1
1
1
1
1
1
1
1
1
1
1
1
1
1
1
1
1
1
1
1
1
1
1
1
1
1
1
1
1
1
1
1
1
1
1
1
1
1
1
1
1
1
1
1
1
1
1
1
1
1
1
1
1
1
1
1
1
1
1
1
1
1
1
1
1
1
1
1
1
1
1
1
1
1
1
1
1
1
1
1
1
1
1
1
1
1
1
1
1
1
1
1
1
1
1
1
1
1
1
1
1
1
1
1
1
1
1
1
1
1
1
1
1
1
1
1
1
1
1
1
1
1
1
1
1
1
1
1
1
1
1
1
1
1
1
1
1
1
1
1
1
1
1
1
1
1
1
1
1
1
1
1
1
1
1
1
1
1
1
1
1
1
1
1
1
1
1
1
1
1
1
1
1
1
1
1
1
1
1
1
1
1
1
1
1
1
1
1
1
1
1
1
1
1
1
1
1
1
1
1
1
1
1
1
1
1
1
1
1
1
1
1
1
1
1
1
1
1
1
1
1
1
1
1
1
1
1
1
1
1
1
1
1
1
1
1
1
1
1
1
1
1
1
1
1
1
1
1
1
1
1
1
1
1
1
1
1
1
1
1
1
1
1
1
1
1
1
1
1
1
1
1
1
1
1
1
1
1
1
1
1
1
1
1
1
1
1
1
1
1
1
1
1
1
1
1
1
1
1
1
1
1
1
1
1
1
1
1
1
1
1
1
1
1
1
1
1
1
1
1
1
1
1
1
1
1
1
1
1
1
1
1
1
1
1
1
1
1
1
1
1
1
1
1
1
1
1
1
1
1
1
1
1
1
1
1
1
1
1
1
1
1
1
1
1
1
1
1
1
1
1
1
1
1
1
1
1
1
1
1
1
1
1
1
1
1
1
1
1
1
1
1
1
1
1
1
1
1
1
1
1
1
1
1
1
1
1
1
1
1
1
1
1
1
1
1
1
1
1
1
1
1
1
1
1
1
1
1
1
1
1
1
1
1
1
1
1
1
1
1
1
1
1
1
1
1
1
1
1
1
1
1
1
1
1
1
1
1
1
1
1
1
1
1
1
1
1
1
1
1
1
1
1
1
1
1
1
1
1
1
1
1
1
1
1
1
1
1
1
1
1
1
1
1
1
1
1
1
1
1
1
1
1
1
1
1
1
1
1
1
1
1
1
1
1
1
1
1
1
1
1
1
1
1
1
1
1
1
1
1
1
1
1
1
1
1
1
1
1
1
1
1
1
1
1
1
1
1
1
1
1
1
1
1
1
1
1
1
1
1
1
1
1
1
1
1
1
1
1
1
1
1
1
1
1
1
1
1
1
1
1
1
1
1
1
1
1
1
1
1
1
1
1
1
1
1
1
1
1
1
1
1
1
1
1
1
1
1
1
1
1
1
1
1
1
1
1
1
1
1
1
1
1
1
1
1
1
1
1
1
1
1
1
1
1
1
1
1
1
1
1
1
1
1
1
1
1
1
1
1
1
1
1
1
1
1
1
1
1
1
1
1
1
1
1
1
1
1
1
1
1
1
1
1
1
1
1
1
1
1
1
1
1
1
1
1
1
1
1
1
1
1
1
1
1
1
1
1
1
1
1
1
1
1
1
1
1
1
1
1
1
1
1
1
1
1
1
1
1
1
1
1
1
1
1
1
1
1
1
1
1
1
1
1
1
1
1
1
1
1
1
1
1
1
1
1
1
1
1
1
1
1
1
1
1
1
1
1
1
1
1
1
1
1
1
1
1
1
1
1
1
1
1
1
1
1
1
1
1
1
1
1
1
1
1
1
1
1
1
1
1
1
1
1
1
1
1
1
1
1
1
1
1
1
1
1
1
1
1
1
1
1
1
1
1
1
1
1
1
1
1
1
1
1
1
1
1
1
1
1
1
1
1
1
1
1
1
1
1
1
1
1
1
1
1
1
1
1
1
1
1
1
1
1
1
1
1
1
1
1
1
1
1
1
1
1
1
1
1
1
1
1
1
1
1
1
1
1
1
1
1
1
1
1
1
1
1
1
1
1
1
1
1
1
1
1
1
1
1
1
1
1
1
1
1
1
1
1
1
1
1
1
1
1
1
1
1
1
1
1
1
1
1
1
1
1
1
1
1
1
1
1
1
1
1
1
1
1
1
1
1
1
1
1
1
1
1
1
1
1
1
1
1
1
1
1
1
1
1
1
1
1
1
1
1
1
1
1
1
1
1
1
1
1
1
1
1
1
1
1
1
1
1
1
1
1
1
1
1
1
1
1
1
1
1
1
1
1
1
1
1
1
1
1
1
1
1
1
1
1
1
1
1
1
1
1
1
1
1
1
1
1
1
1
1
1
1
1
1
1
1
1
1
1
1
1
1
1
1
1
1
1
1
1
1
1
1
1
1
1
1
1
1
1
1
1
1
1
1
1
1
1
1
1
1
1
1
1
1
1
1
1
1
1
1
1
1
1
1
1
1
1
1
1
1
1
1
1
1
1
1
1
1
1
1
1
1
1
1
1
1
1
1
1
1
1
1
1
1
1
1
1
1
1
1
1
1
1
1
1
1
1
1
1
1
1
1
1
1
1
1
1
1
1
1
1
1
1
1
1
1
1
1
1
1
1
1
1
1
1
1
1
1
1
1
1
1
1
1
1
1
1
1
1
1
1
1
1
1
1
1
1
1
1
VECTORS force double
-0.0722992 0 9.30468
1.00653 0 11.8506
-13.6205 0 2.94496
-4.9682 0 20.0801
-12.027 0 10.324
-5.10073 0 -34.7545
7.84477 0 21.4944
2.37903 0 2.7925
-18.2974 0 6.34209
-4.09976 0 9.23853
33.3115 0 56.7286
-45.1516 0 -66.4054
-5.26631 0 -11.0839
11.8902 0 -23.711
0 0 0
12.0537 0 -1.53408
4.24477 0 1.31146
8.09966 0 12.0948
0 0 0
-4.96327 0 -13.5391
4.37321 0 -2.67746
-17.9451 0 -0.295916
24.9468 0 3.66035
14.4424 0 -17.6261
-1.93272 0 -3.51875
-4.528 0 6.38799
13.3009 0 5.99367
7.81754 0 9.2066
17.4719 0 -30.8382
-3.37554 0 5.29477
-25.1781 0 20.5194
11.6354 0 78.3752
-1.13334 0 13.1236
-10.2149 0 -92.2321
40.8402 0 -44.2374
-0.334679 0 -2.07974
-14.3786 0 -17.3347
-24.0853 0 -1.16329
17.4288 0 2.82692
-3.37448 0 -2.50683
2.85143 0 12.7536
0 0 0
88.2525 0 -64.3648
-14.3232 0 2.44431
0.919225 0 -2.56692
0.849099 0 1.009
-6.91792 0 3.93726
-8.7595 0 -9.73382
11.6733 0 -4.7537
4.50335 0 38.494
-2.03256 0 12.6979
17.9485 0 3.95596
-29.7683 0 10.3035
37.4516 0 -4.01469
-16.7373 0 13.8512
2.09033 0 -12.6807
8.57474 0 12.2785
10.8203 0 -5.82747
-1.07654 0 22.9298
-1.0278 0 1.82403
22.0023 0 5.90611
-6.07734 0 -50.1055
20.5245 0 12.9415
32.288 0 -28.112
3.20854 0 -35.6873
-31.2398 0 -2.35578
22.1981 0 22.1533
1.34783 0 -0.691969
-88.8538 0 -7.2908
64.7964 0 -29.2622
-3.42514 0 5.43877
-7.70786 0 3.58699
13.0178 0 15.8949
-23.1508 0 -15.6865
-69.9707 0 4.91757
17.8142 0 10.3513
-16.0407 0 -1.52395
4.763 0 -3.17983
0.560143 0 33.7137
11.0026 0 -0.593776
-11.6437 0 16.6938
0 0 0
7.81987 0 -3.5203
6.05519 0 24.6358
-173.622 0 -92.5518
177.652 0 83.5027
11.2501 0 9.23202
-12.6689 0 1.01556
0 0 0
-8.75877 0 -7.75814
6.98776 0 6.13886
0 0 0
-5.64624 0 -1.00375
-7.26343 0 11.4689
-2.86593 0 -15.6744
-6.95823 0 5.16038
9.03688 0 -3.01191
26.0127 0 -30.6078
0 0 0
13.2685 0 17.1274
-10.2037 0 3.41388
-15.7807 0 2.38612
2.14896 0 5.7545
-6.92879 0 8.05894
-3.77468 0 -50.0767
21.9062 0 -12.6246
4.75382 0 22.6238
-4.31147 0 -6.19536
-2.19588 0 -2.97922
-22.7279 0 -18.1187
-72.3476 0 -16.9414
86.2214 0 -25.7811
-27.6705 0 11.1745
2.4333 0 6.51244
23.2549 0 7.53012
4.0061 0 -54.893
13.2884 0 10.5106
-9.57074 0 15.8746
41.7565 0 -63.3658
-22.5654 0 3.98947
5.36295 0 -8.78427
12.4225 0 36.258
-3.03018 0 -15.4209
-81.0245 0 17.1401
40.9963 0 14.5004
0.405968 0 23.7567
43.9473 0 -43.3359
12.4345 0 -13.0559
0.195358 0 -5.88642
-81.451 0 17.1344
79.9611 0 56.047
-0.600789 0 -20.6807
-12.062 0 -9.94211
-2.56758 0 -1.89327
13.578 0 8.68951
9.11045 0 -7.09865
-11.8083 0 9.62757
35.9234 0 1.05532
11.2811 0 11.3923
-1.72485 0 3.48007
-4.61239 0 13.0874
9.92587 0 12.1984
5.47962 0 25.038
-22.3245 0 -19.7116
0 0 0
-8.13356 0 -10.9773
-22.4474 0 16.6504
4.29382 0 21.1989
5.31964 0 34.4985
9.23311 0 -21.7312
3.32117 0 -12.7318
-19.448 0 8.24806
6.25033 0 5.12295
-10.0782 0 10.8941
-39.2115 0 28.608
-6.93008 0 -4.58207
3.60076 0 27.6958
44.8578 0 3.23647
-10.9597 0 8.17007
4.73662 0 18.2694
-5.32558 0 15.5374
-94.4309 0 73.3534
-16.4305 0 -17.8611
54.5955 0 16.3348
-15.9547 0 -7.96121
-25.7112 0 -46.2897
-17.4224 0 -4.80367
-67.177 0 28.7184
-19.2245 0 20.6704
39.3497 0 26.0917
-26.856 0 44.538
22.0014 0 -7.02939
10.6754 0 0.0407085
-44.9146 0 -17.266
17.2043 0 6.50213
-49.2129 0 12.7285
77.8123 0 -19.6135
-37.2171 0 12.889
-7.50599 0 14.272
-5.91388 0 -8.99041
18.5775 0 0.669489
-6.85216 0 -44.4727
-27.1158 0 12.392
34.4634 0 11.5828
-31.0224 0 -24.4643
-3.45656 0 71.99
-11.4248 0 25.8941
1.82603 0 -15.1362
-1.37929 0 -13.7121
5.534 0 -38.9875
-24.0699 0 32.6304
8.59706 0 23.4585
13.8883 0 2.47195
13.2111 0 37.52
12.9185 0 -28.9951
4.0687 0 -1.60475
67.1255 0 -57.5549
1.15294 0 1.48091
15.035 0 -33.9315
4.66516 0 3.37903
-0.581187 0 2.68119
-22.0825 0 -9.08079
0.0569171 0 -31.3858
16.2153 0 -15.1441
13.1259 0 -11.1055
-46.2378 0 -43.4739
-13.6673 0 0.990286
-13.4159 0 17.7959
15.1991 0 11.6754
-15.1838 0 -14.9441
14.6193 0 2.05898
13.4756 0 -29.8548
-13.8785 0 11.6991
-55.1474 0 0.776201
-39.405 0 -3.14257
31.5121 0 -19.3254
-12.6479 0 -5.83214
-3.77963 0 7.09326
18.7147 0 11.3921
-11.4771 0 -11.4584
22.4658 0 -80.7385
-43.4508 0 11.9959
-42.7973 0 11.5215
-9.06661 0 -40.5784
4.38922 0 44.3003
7.11699 0 14.6902
7.27557 0 35.9099
75.6768 0 -16.2941
-56.0828 0 7.86933
34.7841 0 -11.2206
17.0478 0 -14.529
-79.5772 0 -20.9008
51.8055 0 -104.646
19.9828 0 -26.9256
20.6307 0 -13.395
-15.1233 0 33.788
-26.2137 0 2.11189
33.1829 0 0.155115
1.75227 0 22.2866
-20.022 0 4.00925
-21.2639 0 -11.0926
51.2628 0 46.5434
-6.50348 0 -35.0376
42.0459 0 -70.02
6.50192 0 45.2664
-2.05802 0 -70.5258
-0.31064 0 1.91844
-40.8777 0 -10.3348
48.4488 0 33.6946
-24.672 0 23.2594
12.3059 0 11.5273
2.8654 0 10.0318
29.7898 0 56.7036
-27.3409 0 67.5409
-8.50205 0 -1.03615
-121.107 0 37.1197
101.266 0 -73.2778
7.69465 0 2.87351
-24.3129 0 17.7312
-96.6923 0 -53.283
2.28696 0 6.77181
-8.21814 0 15.3578
3.03205 0 -25.5579
-16.5978 0 1.17878
5.48215 0 0.594783
3.7581 0 -46.1339
42.3715 0 -7.88867
23.7452 0 20.1681
5.2204 0 -4.34929
-2.23609 0 -9.01876
-36.2249 0 27.7666
-1.18683 0 18.2261
42.7603 0 -30.5397
12.4357 0 21.6254
-6.10799 0 -1.63435
31.3511 0 26.5084
16.0255 0 -24.7876
-6.87518 0 9.84469
30.2946 0 70.6015
4.17927 0 16.2638
-5.06263 0 -28.315
24.262 0 9.4408
-6.49179 0 87.2582
10.5563 0 -4.07394
-11.6286 0 5.67655
15.2311 0 -7.58579
5.50328 0 -23.5039
-4.33338 0 -4.64382
21.673 0 -17.8649
11.4319 0 4.47398
-16.7934 0 37.5425
-8.32959 0 -59.013
-13.6202 0 105.25
-10.1409 0 -32.3885
-6.94691 0 32.2247
13.8722 0 36.9203
0.842314 0 -96.4792
14.7914 0 -69.0442
-20.5776 0 -11.8984
2.61214 0 -25.4805
-19.2607 0 -41.9417
-12.0908 0 -2.82368
-2.9109 0 47.6217
-100.056 0 0.494704
56.8921 0 23.7612
18.7269 0 1.30718
-26.0005 0 27.2923
53.4031 0 23.6885
0.31509 0 7.18417
-2.05137 0 -28.2902
12.6806 0 -1.43713
27.3843 0 -11.8177
77.0787 0 -9.96512
5.84105 0 15.3666
36.1113 0 -21.8208
-16.4186 0 16.3982
-23.0571 0 25.5764
37.4207 0 -23.8994
-16.3861 0 12.2366
10.9831 0 -18.2771
-14.4377 0 -28.8482
-4.89987 0 -0.745785
11.8385 0 10.3745
3.09578 0 11.6784
16.058 0 74.2509
-7.5448 0 22.0369
6.08866 0 54.4392
8.8841 0 -50.3501
-9.11118 0 10.3589
-0.457141 0 2.03545
10.7696 0 -6.82689
-32.7602 0 10.8767
16.8804 0 -19.7153
-25.5987 0 29.5849
20.5396 0 -12.1337
-1.13873 0 5.59443
-17.8533 0 3.22594
-37.9048 0 -89.3133
7.18671 0 5.7105
25.8839 0 -11.8142
4.6763 0 11.4321
-0.280672 0 9.10353
8.66509 0 -18.0855
6.28476 0 0.865675
0.564736 0 2.76246
7.85601 0 3.01076
-6.4429 0 11.0321
-9.38712 0 1.69417
86.7107 0 -13.828
-24.7171 0 19.9562
51.0391 0 15.3038
6.83352 0 35.6353
-2.788 0 55.0823
15.1297 0 -36.4004
-2.85873 0 -6.5508
-12.0144 0 103.55
-1.07268 0 15.8553
-5.77834 0 60.2361
-10.642 0 20.841
36.4952 0 12.6114
22.2671 0 -11.0481
-127.433 0 -67.4328
22.8967 0 25.2509
-46.144 0 14.8829
2.82958 0 -9.53544
67.5001 0 -4.98608
-10.7608 0 23.2962
3.67697 0 -45.6174
4.43483 0 7.08904
7.35695 0 24.9584
-9.78329 0 -2.75688
-87.4501 0 -7.24455
2.53751 0 -17.4021
-80.9469 0 -39.9049
2.12882 0 -14.1449
26.6003 0 35.4196
6.14107 0 -1.0521
-55.4853 0 53.5554
-30.374 0 91.0595
105.715 0 19.1165
5.85837 0 26.7632
2.31774 0 -2.33274
-2.16199 0 -72.5817
-50.4409 0 18.0958
-7.69318 0 4.61375
21.2878 0 -1.44563
-14.5085 0 3.61712
-9.45409 0 -18.5193
16.1193 0 13.259
26.768 0 -27.2813
-13.1328 0 26.6017
12.8696 0 -33.8848
5.65622 0 29.8729
4.98671 0 -5.8322
-3.1703 0 -2.67499
-49.2184 0 -18.3072
-1.31842 0 -35.0442
20.114 0 -0.946565
-8.49389 0 5.12954
-15.7856 0 -113.469
22.7588 0 38.5163
1.11875 0 12.6248
14.585 0 -5.30731
24.7442 0 -20.4464
8.39816 0 -5.5675
16.4523 0 5.88046
4.33332 0 4.93704
0.666214 0 -15.4093
-74.3706 0 7.30407
-39.5484 0 19.2714
57.5326 0 -2.04071
-5.39519 0 -0.126818
-17.0825 0 -26.1004
-11.6964 0 28.9433
-90.3613 0 -97.7234
10.1783 0 -11.2622
-10.8865 0 7.3892
44.3491 0 -33.1969
49.0339 0 -79.0852
-21.3569 0 -25.609
-0.90683 0 -22.8654
-3.99414 0 36.7559
104.718 0 37.773
35.4642 0 11.1427
-0.589684 0 -4.04249
-43.0456 0 -2.30515
0.773065 0 3.96552
-16.7838 0 15.3921
-1.79914 0 18.7088
-6.3917 0 -10.2006
18.4222 0 -7.0363
8.43724 0 -53.7383
-14.5979 0 6.66996
-7.92391 0 -11.3778
-26.3173 0 -10.4213
-13.2304 0 -11.2133
-3.19282 0 1.04948
-5.78861 0 -4.57696
-21.6877 0 -0.12578
34.1659 0 -48.664
31.1697 0 -49.5445
19.2809 0 -4.19401
16.2386 0 51.2404
30.966 0 34.7347
-19.7093 0 -40.474
53.6423 0 7.1066
-23.177 0 18.9457
23.7165 0 5.2205
-1.83209 0 -2.63785
2.75421 0 6.12765
6.65619 0 -4.10593
15.6593 0 -11.9425
9.12299 0 -12.3495
-11.4496 0 -3.08133
17.2428 0 -1.77713
49.3009 0 41.5514
-4.25099 0 5.37552
-5.70455 0 2.51907
-43.1025 0 56.0763
-2.87861 0 1.90806
14.7158 0 29.2425
-16.1601 0 9.19916
-15.9241 0 0.732775
-42.5906 0 1.28354
-16.9421 0 2.27881
-17.4814 0 104.382
-10.5546 0 -45.9797
19.4533 0 -103.855
0.306717 0 40.1373
-20.6593 0 -17.5902
-5.61104 0 -31.0237
-19.0841 0 -58.7413
59.8981 0 -16.4166
-6.75317 0 6.01512
95.7237 0 91.7563
-68.1183 0 31.9259
1.10324 0 2.48286
-52.6662 0 35.8042
0.884879 0 45.0078
-4.77599 0 22.1498
8.45277 0 33.6604
-6.83825 0 5.75475
19.087 0 1.20872
18.8884 0 -4.73095
5.18651 0 -52.1617
7.65387 0 -6.83882
-44.7468 0 11.4006
-6.62502 0 9.32371
-101.956 0 -43.5401
5.76407 0 -89.3263
105.027 0 32.4729
5.37978 0 1.21081
-27.8481 0 28.3151
13.6924 0 34.0478
23.0272 0 -3.90359
-8.66577 0 17.6254
6.34996 0 -18.0473
20.0751 0 2.73529
19.2905 0 -10.1768
0.399132 0 -37.0829
10.173 0 -41.3343
-26.7968 0 14.0055
-26.9215 0 36.7116
-0.01061 0 -35.2813
-29.9953 0 29.1206
-1.7449 0 -25.0816
15.7069 0 -36.1329
15.0455 0 6.96903
34.2133 0 -13.6289
-33.0974 0 26.0799
-1.35148 0 -10.5022
1.79837 0 -13.6622
-0.0229212 0 51.3172
-15.6436 0 -5.18563
7.0694 0 -16.2721
-26.3741 0 -3.64759
-12.039 0 -16.663
8.1953 0 13.8327
-24.5235 0 13.826
-39.704 0 -36.547
1.72886 0 8.41595
-25.249 0 -25.3332
9.64968 0 25.1577
-10.6882 0 -12.2026
-0.531118 0 21.5655
12.3232 0 9.93521
-3.55848 0 -32.7119
-8.33717 0 -4.148
1.07215 0 36.8186
-9.25376 0 65.5343
56.1329 0 18.1308
-73.1054 0 -6.18854
28.9219 0 -12.4922
143.338 0 -34.4219
26.8602 0 -1.8144
-5.46313 0 7.07864
7.28614 0 -4.60786
-14.8802 0 0.648747
-5.69258 0 2.06851
-17.9469 0 10.6325
1.98094 0 4.25102
-28.2761 0 9.78499
9.89052 0 -3.56178
1.80001 0 -1.97889
38.8572 0 -14.721
2.92887 0 6.24727
9.74944 0 -17.2911
-0.527646 0 48.892
-41.7932 0 -21.8527
44.5829 0 87.1941
-3.33721 0 -3.81337
3.93112 0 17.9009
22.9195 0 -50.8605
-18.3182 0 -32.6917
37.4656 0 -27.9371
-1.55218 0 18.168
2.52421 0 19.5513
-9.33647 0 -13.9404
-9.94242 0 22.9261
-10.9828 0 3.73544
10.1694 0 -11.7106
-4.54823 0 23.8703
1.58922 0 35.3212
-167.132 0 -8.71846
-6.94806 0 -19.7056
-51.0529 0 37.7237
62.7515 0 -8.55832
-6.2606 0 0.477593
-9.73284 0 -9.06199
-36.9039 0 -3.84084
14.63 0 4.17553
-0.398459 0 -17.3077
-11.4977 0 11.0065
-1.41953 0 -16.1804
-7.27912 0 -15.839
-7.05693 0 10.9727
-12.3127 0 -9.44281
48.6184 0 11.6522
-15.7782 0 -7.87486
14.7706 0 15.1892
7.38126 0 4.20148
-2.57718 0 10.7209
14.3914 0 -22.5588
-11.4464 0 2.08294
-2.58104 0 -48.7496
5.88304 0 15.1263
3.38519 0 -1.10872
-17.7819 0 -51.2826
-23.7814 0 18.0591
15.1692 0 -11.8837
-61.7552 0 24.1085
71.821 0 15.747
-59.6177 0 13.387
95.138 0 -77.4216
-141.307 0 41.5123
-21.8676 0 -17.0137
13.6527 0 -65.5362
-3.13695 0 -1.92945
15.3301 0 8.5083
19.0511 0 -25.6899
34.969 0 20.7697
20.1332 0 9.94232
23.0079 0 -24.5827
-3.68724 0 16.73
2.19484 0 -4.78513
-0.389888 0 3.31299
-41.8214 0 11.5556
-18.4708 0 47.6227
34.2347 0 -86.4909
12.4593 0 -16.4405
34.1393 0 -75.2149
-0.582373 0 -14.2927
9.56376 0 11.7773
-32.459 0 84.8814
-19.1456 0 9.15963
5.26881 0 -1.70343
1.1231 0 -17.2298
-20.6281 0 25.0333
12.9175 0 9.35237
-16.8083 0 -23.9406
-74.2392 0 -30.0782
-29.3155 0 -9.59307
-47.896 0 33.4086
2.99004 0 5.80889
0.482277 0 -10.0631
-34.3621 0 -4.50828
40.1116 0 -20.6164
-16.5019 0 2.59008
-29.7163 0 0.406547
-16.2914 0 4.06238
43.589 0 -87.956
-98.8256 0 77.9895
107.941 0 -52.8801
-0.38808 0 13.8324
-9.47599 0 11.4933
0.457242 0 -8.49109
3.02288 0 9.70034
45.3743 0 -20.326
2.79603 0 10.0562
-24.5933 0 -48.4856
-17.4086 0 0.442575
14.5721 0 7.88225
1.22979 0 -44.1355
27.5662 0 47.8576
6.30187 0 6.83386
-3.30846 0 -16.4213
43.4482 0 3.45161
-92.4673 0 -44.7838
7.02886 0 6.85664
25.6167 0 -6.15782
1.49108 0 0.971302
25.0768 0 -13.4199
-31.9717 0 -19.9459
21.2539 0 -32.7409
-51.7603 0 54.7237
22.4444 0 12.9659
-34.2674 0 -4.16411
4.70691 0 14.3085
12.3763 0 13.9531
11.2459 0 27.9104
-32.9093 0 -16.3707
-5.88993 0 22.7051
0.969463 0 -23.1011
-3.32838 0 -3.90113
-10.736 0 7.2247
-12.1902 0 -28.1925
-22.8139 0 32.0033
-9.99944 0 -20.7086
-2.22226 0 1.01327
-20.2265 0 -13.8696
-55.6501 0 -0.239706
-6.8319 0 5.03449
-15.6175 0 49.6504
-37.7478 0 21.603
34.7041 0 -41.2839
-7.10061 0 31.2026
5.68728 0 -3.93188
-5.18082 0 -21.344
6.15113 0 -13.1713
12.1715 0 -8.17186
42.3382 0 32.0048
-59.211 0 45.9107
1.98374 0 78.9877
35.0816 0 37.1854
42.6854 0 -67.6184
182.192 0 -0.13752
-25.6461 0 17.6008
-3.06244 0 -11.4781
-6.48021 0 -0.500062
-1.72879 0 8.7905
-6.35968 0 -2.79395
9.63091 0 -19.1961
3.23361 0 -18.9459
-1.70083 0 -6.26781
8.70731 0 11.1231
-1.4753 0 -1.52789
-48.3504 0 -8.15133
49.7049 0 -23.4034
-14.8147 0 -5.34728
21.6598 0 42.986
22.2567 0 17.0194
-17.2576 0 -9.70865
-0.281518 0 -28.5722
17.8663 0 -26.7806
-0.0933297 0 30.0082
-22.9205 0 -71.1024
7.53309 0 -8.05153
5.85983 0 31.4064
-11.3612 0 16.9405
-28.3701 0 -47.5231
34.2953 0 -40.5576
8.69287 0 4.5269
-82.5304 0 45.1377
1.23715 0 73.317
-48.2864 0 48.3681
46.4945 0 -71.1885
-7.26683 0 -13.3355
-12.0316 0 9.02271
1.76434 0 -3.48302
-3.53047 0 0.0288569
22.7225 0 -40.8949
-8.4386 0 3.90694
-24.9901 0 -37.8766
-39.5649 0 47.0903
18.2519 0 -22.7976
30.3648 0 -2.26031
4.57286 0 16.5116
43.6737 0 84.6711
23.8426 0 3.74427
-107.593 0 -29.576
-3.73532 0 -10.8249
-1.07142 0 -8.80233
-7.98398 0 4.71006
1.25564 0 -24.7153
-9.04254 0 -23.0782
1.49529 0 0.0238506
10.7656 0 -0.34097
12.9741 0 12.0655
16.964 0 -6.35075
-8.46798 0 -4.19585
12.0454 0 -6.68929
6.72482 0 10.1252
36.2969 0 -9.8598
-39.1826 0 -15.9521
-4.3562 0 -3.37651
50.5257 0 -44.8518
-11.3112 0 1.89357
56.7487 0 -20.3714
10.4303 0 2.7158
-30.1206 0 66.4067
9.40724 0 -0.313644
1.36175 0 4.22183
10.4112 0 5.66787
9.13501 0 8.91731
4.95661 0 -11.1473
7.75581 0 -14.8968
7.80456 0 5.91335
-2.44962 0 -0.915878
-10.3666 0 -12.4291
-5.04163 0 4.22161
50.6518 0 97.6593
-7.7926 0 -81.4472
-27.7293 0 1.40046
-4.44314 0 17.8696
20.8048 0 13.4566
-13.6364 0 109.644
-24.1457 0 1.73885
93.3498 0 21.383
5.31061 0 -4.30942
-24.0649 0 20.868
46.8077 0 5.25333
-19.5659 0 -0.39072
-15.8329 0 -8.82638
34.9407 0 -0.0380215
-6.3804 0 -13.9617
-22.3348 0 -38.9185
31.1166 0 -2.52112
-12.5709 0 2.53231
-3.93759 0 -10.3533
1.60102 0 9.96395
12.3271 0 12.7686
1.14719 0 39.3782
10.7837 0 8.05156
18.0521 0 43.4508
-11.9391 0 -11.576
17.1869 0 24.8682
4.34726 0 22.043
10.8686 0 -47.9533
20.8826 0 40.9672
-89.8892 0 -36.1566
-12.8058 0 11.1627
41.2401 0 77.8763
-26.2993 0 12.9293
1.13861 0 18.558
18.1677 0 -1.69032
23.5467 0 13.8358
-20.9272 0 22.6004
15.8537 0 0.907443
-87.5442 0 -56.48
33.3399 0 -29.1818
27.2292 0 1.00986
-12.9811 0 23.1845
-56.7708 0 -24.4155
-33.2086 0 2.36895
34.2217 0 -21.3737
-28.7311 0 15.2861
6.93262 0 21.6954
21.4989 0 -10.256
-14.2047 0 -14.2379
12.0949 0 11.9886
-3.45041 0 17.4535
-79.834 0 -79.5329
-1.69211 0 30.0385
23.4961 0 6.93104
5.46728 0 22.1312
9.07238 0 0.280766
-12.0145 0 10.5811
-1.11166 0 0.752477
12.4619 0 -14.1479
3.93342 0 -30.1957
16.2373 0 -13.6271
24.2044 0 45.0513
-3.69983 0 -112.659
-2.90061 0 9.6714
17.9998 0 29.1432
-19.7409 0 -8.26479
14.9283 0 9.46259
5.38228 0 -11.3746
17.3529 0 37.4205
11.5255 0 -31.5615
11.8086 0 7.61599
78.6556 0 -64.4787
12.6369 0 -14.6014
-4.71593 0 27.8177
-88.2586 0 -162.19
-44.8675 0 34.6945
57.6953 0 -34.4083
19.832 0 -10.5958
-17.1966 0 -22.0094
-17.4009 0 16.8145
16.0035 0 8.99493
-87.739 0 -12.3545
-30.1125 0 -11.6134
-3.64718 0 -33.8895
27.3173 0 -10.0746
-6.42866 0 -18.6755
-1.45142 0 5.02667
-21.4196 0 24.6619
-7.52951 0 18.2684
-81.8754 0 -6.64075
83.4169 0 -7.6268
109.292 0 31.2486
2.7874 0 -8.55615
-14.8541 0 -12.9309
-52.1772 0 -91.8237
11.3349 0 -40.6058
-8.0341 0 -5.00041
-13.9133 0 -12.0428
-30.1108 0 38.1708
8.15069 0 -5.11349
-0.147015 0 -0.2533
3.10576 0 -4.38986
26.3972 0 27.7037
-9.45493 0 -41.8601
34.8159 0 3.30556
26.1572 0 20.1221
-1.31902 0 -14.742
92.4668 0 -74.6552
15.052 0 -9.67106
-12.9422 0 11.9204
11.3648 0 -5.08924
-7.91442 0 -12.3643
122.163 0 71.2447
7.41142 0 -3.62894
-74.9905 0 -16.7308
83.0947 0 -2.26544
-10.0617 0 -8.26075
39.5747 0 16.4189
10.8525 0 -14.4693
-68.2257 0 -27.7184
-20.2024 0 50.0297
-9.01752 0 -5.81586
-12.6623 0 125.809
16.399 0 -25.9479
8.78828 0 19.7857
-44.8765 0 -95.9512
-22.9915 0 -10.6889
24.1353 0 -11.424
-89.324 0 39.6529
-68.8499 0 -113.233
22.7503 0 -9.85839
16.1618 0 16.9065