# vtk DataFile Version 3.0
SiWiRVisFile
ASCII
DATASET UNSTRUCTURED_GRID
POINTS 1600 DOUBLE
76.8973 100 73.5538
77.8094 100 74.2384
78.9783 100 74.8215
80.7827 100 74.4416
81.7937 100 75.1585
82.7635 100 75.5638
84.4831 100 75.1123
85.5621 100 75.5801
86.6438 100 75.8396
85.4388 100 74.4824
90.4094 100 75.4127
91.219 100 74.6392
89.7508 100 74.1376
89.8737 100 73.0511
89.2715 100 71.6195
92.4156 100 66.755
93.5143 100 67.5142
95.2992 100 66.2399
93.6078 100 63.3137
97.2988 100 65.0181
104.491 100 51.9707
104.056 100 54.9042
104.872 100 54.0696
106.278 100 52.8797
105.102 100 52.9856
107.438 100 53.0083
109.777 100 49.224
110.817 100 48.8789
110.461 100 50.0485
111.684 100 49.7344
112.81 100 49.7349
114.032 100 50.0493
113.674 100 48.8802
114.715 100 49.2242
117.054 100 53.0079
119.39 100 52.9857
118.214 100 52.8799
119.62 100 54.0698
120.436 100 54.9042
120.001 100 51.9706
127.19 100 65.0238
130.885 100 63.3137
129.193 100 66.2394
130.978 100 67.5147
132.077 100 66.755
135.221 100 71.6193
134.618 100 73.0518
134.741 100 74.1371
133.274 100 74.6395
134.083 100 75.4125
139.054 100 74.4824
137.849 100 75.8396
138.93 100 75.5801
140.009 100 75.1123
141.729 100 75.5637
142.699 100 75.1585
143.71 100 74.4416
145.514 100 74.8215
146.683 100 74.2384
147.595 100 73.5538
76.9877 100 74.8755
78.0178 100 75.4321
79.9964 100 75.3252
80.9126 100 75.9219
81.8772 100 76.3497
83.8229 100 75.961
84.8336 100 76.4433
86.0015 100 76.6861
87.1522 100 76.7926
88.193 100 77.0515
89.3478 100 76.8864
92.4397 100 74.6217
90.8976 100 73.5452
91.6207 100 71.9174
92.4261 100 70.3008
90.3432 100 71.7919
94.5209 100 67.0425
96.3651 100 65.7221
97.3944 100 66.1129
99.8051 100 65.6386
104.004 100 53.3124
99.3437 100 58.8895
105.04 100 60.0818
110.131 100 52.9803
106.028 100 51.8112
108.425 100 53.9333
108.725 100 52.8278
109.381 100 52.0423
109.03 100 50.1027
111.236 100 50.7843
113.258 100 50.7848
115.462 100 50.1016
115.111 100 52.0424
115.768 100 52.8276
116.068 100 53.9337
118.464 100 51.8113
114.361 100 52.9802
119.461 100 60.0859
125.149 100 58.8895
120.488 100 53.3123
124.691 100 65.6364
127.097 100 66.1108
128.127 100 65.7216
129.973 100 67.0413
134.15 100 71.7919
132.067 100 70.2991
132.872 100 71.9175
133.595 100 73.5459
132.053 100 74.6213
135.145 100 76.8868
136.3 100 77.0515
137.34 100 76.7925
138.491 100 76.6861
139.659 100 76.4432
140.67 100 75.961
142.615 100 76.3497
143.58 100 75.922
144.496 100 75.3252
146.475 100 75.4321
147.505 100 74.8755
77.0334 100 76.0093
78.1441 100 76.5897
79.0719 100 75.9061
79.9715 100 76.4694
81.0162 100 76.9571
82.9993 100 76.7827
84.0248 100 77.1196
85.1491 100 77.4728
86.2473 100 77.792
87.5029 100 77.9969
88.5693 100 78.2675
89.8104 100 77.9701
91.2605 100 77.6621
92.0366 100 73.5509
93.5733 100 70.9487
94.2825 100 70.0087
94.3442 100 68.1864
95.5575 100 67.6976
96.2293 100 66.7766
98.7251 100 65.2329
99.9153 100 64.5817
103.516 100 61.3854
105.826 100 60.8681
106.78 100 60.4127
106.353 100 57.3465
106.92 100 59.3004
107.546 100 58.3065
105.86 100 58.967
110.577 100 51.8403
111.67 100 51.7642
112.819 100 51.765
113.916 100 51.8403
118.628 100 58.9413
116.942 100 58.3029
117.577 100 59.2853
118.142 100 57.3508
117.71 100 60.4138
118.663 100 60.866
120.964 100 61.3898
124.575 100 64.5791
125.771 100 65.231
128.263 100 66.7797
128.936 100 67.6971
130.148 100 68.1864
130.206 100 70.0107
130.923 100 70.9485
132.457 100 73.5514
133.232 100 77.6614
134.681 100 77.9715
135.923 100 78.2675
136.99 100 77.9971
138.245 100 77.7921
139.343 100 77.4727
140.468 100 77.1196
141.493 100 76.7827
143.476 100 76.9571
144.521 100 76.4694
145.421 100 75.9061
146.348 100 76.5897
147.459 100 76.0093
77.1484 100 77.0697
78.1232 100 77.8066
79.0435 100 77.1339
80.0619 100 77.7943
82.077 100 77.4037
83.141 100 77.9498
84.2429 100 78.2243
85.4649 100 78.5603
86.6739 100 78.9543
87.8451 100 79.1089
88.9635 100 79.4547
90.1079 100 79.566
90.9236 100 78.7573
93.0068 100 73.0436
92.9015 100 71.9312
94.5257 100 71.2636
95.3 100 70.2282
95.0272 100 69.1768
96.121 100 68.5895
96.8414 100 67.797
98.122 100 67.4033
100.816 100 65.9827
104.817 100 61.1648
105.305 100 63.3761
105.656 100 62.3277
106.738 100 61.5146
108.923 100 61.3828
109.96 100 61.2624
108.375 100 59.18
111.459 100 52.7628
113.035 100 52.7616
116.122 100 59.1861
114.54 100 61.2545
115.572 100 61.3749
117.752 100 61.5111
118.836 100 62.3281
119.201 100 63.3673
119.673 100 61.1713
123.678 100 65.9825
126.368 100 67.4041
127.644 100 67.796
128.369 100 68.5885
129.461 100 69.1764
129.191 100 70.2306
129.968 100 71.2625
131.596 100 71.9298
131.487 100 73.0433
133.569 100 78.7576
134.385 100 79.5655
135.529 100 79.4553
136.647 100 79.1091
137.819 100 78.9544
139.028 100 78.5603
140.249 100 78.2242
141.351 100 77.9498
142.415 100 77.4037
144.43 100 77.7943
145.449 100 77.1339
146.369 100 77.8066
147.344 100 77.0697
77.0613 100 78.2031
78.1684 100 78.9436
79.0916 100 78.3798
81.0949 100 78.008
82.1829 100 78.5373
83.2045 100 79.0429
84.1927 100 79.4421
85.4873 100 79.7107
87.1251 100 79.9507
88.1942 100 80.2082
88.9701 100 81.0513
91.0951 100 79.9901
91.9259 100 78.4742
94.252 100 73.2966
93.8677 100 72.3062
95.9394 100 71.882
96.2739 100 70.65
96.3502 100 69.577
97.2784 100 68.7932
98.4059 100 68.4996
99.0993 100 66.4781
102.874 100 66.8452
106.39 100 63.1018
107.439 100 62.5067
107.749 100 61.3555
108.61 100 62.9324
109.532 100 62.2704
110.589 100 63.0323
107.82 100 60.1388
111.468 100 54.2582
113.025 100 54.2569
116.668 100 60.1582
113.905 100 63.0354
114.96 100 62.2611
115.864 100 62.9387
116.746 100 61.3752
117.066 100 62.5102
118.107 100 63.1061
121.618 100 66.8388
125.401 100 66.4722
126.087 100 68.5012
127.214 100 68.7966
128.138 100 69.5743
128.219 100 70.6511
128.564 100 71.8845
130.628 100 72.3065
130.245 100 73.2974
132.567 100 78.4715
133.397 100 79.9904
135.523 100 81.0517
136.298 100 80.2088
137.367 100 79.9505
139.005 100 79.7106
140.3 100 79.442
141.288 100 79.0429
142.309 100 78.5374
143.398 100 78.0081
145.401 100 78.3798
146.324 100 78.9435
147.431 100 78.2031
77.1324 100 79.3316
77.9994 100 80.0158
79.0186 100 79.6335
80.1158 100 78.8998
81.1722 100 79.0778
82.2578 100 79.7297
83.2285 100 80.4724
84.644 100 80.4474
85.7455 100 80.8086
86.8834 100 80.9906
87.8565 100 81.2555
90.0923 100 80.584
92.0056 100 80.5317
92.7932 100 77.2316
93.6119 100 76.4727
94.9396 100 72.4223
97.2323 100 72.3394
97.2064 100 71.2706
97.5255 100 69.9678
99.3684 100 69.4687
99.4327 100 68.0794
101.816 100 67.072
103.679 100 66.0769
105.211 100 65.5664
105.352 100 64.4855
107.402 100 63.6106
108.35 100 64.0677
109.533 100 63.4002
111.441 100 63.783
111.277 100 61.9629
113.216 100 61.9678
113.05 100 63.7797
114.959 100 63.4109
116.123 100 64.0683
117.082 100 63.6179
119.117 100 64.4858
119.287 100 65.5554
120.807 100 66.0806
122.675 100 67.0694
125.062 100 68.0837
125.124 100 69.4653
126.965 100 69.9466
127.279 100 71.2632
127.25 100 72.3321
129.56 100 72.4226
130.881 100 76.4729
131.698 100 77.2326
132.487 100 80.533
134.402 100 80.5828
136.636 100 81.2558
137.609 100 80.9907
138.747 100 80.8085
139.849 100 80.4472
141.264 100 80.4725
142.235 100 79.7298
143.32 100 79.0778
144.377 100 78.8998
145.474 100 79.6335
146.493 100 80.0158
147.36 100 79.3317
76.7202 100 80.3857
77.6651 100 81.0413
79.42 100 80.7689
80.1492 100 79.9312
81.3071 100 80.1837
82.2194 100 80.8877
83.8711 100 81.2863
84.96 100 81.6105
86.0622 100 81.8769
87.2958 100 82.1632
88.4264 100 82.2196
90.9667 100 81.2632
92.165 100 81.6336
93.328 100 78.3173
95.6764 100 75.0442
96.2422 100 72.9545
97.5058 100 74.0309
98.29 100 71.5377
98.5617 100 70.4833
100.415 100 68.6357
100.434 100 67.3334
102.746 100 68.0514
104.607 100 66.7064
106.792 100 65.2197
108.094 100 65.1398
109.227 100 64.7483
110.103 100 66.4345
110.382 100 64.2383
109.423 100 67.3388
110.566 100 68.2156
114.057 100 68.1897
115.08 100 67.4023
114.105 100 64.2443
114.401 100 66.4116
115.25 100 64.7278
116.381 100 65.0776
117.719 100 65.2201
119.882 100 66.709
121.745 100 68.0434
124.06 100 67.3358
124.076 100 68.6339
125.938 100 70.4889
126.199 100 71.5484
126.991 100 74.0357
128.245 100 72.9477
128.821 100 75.0456
131.166 100 78.3201
132.33 100 81.6342
133.526 100 81.2626
136.065 100 82.2191
137.196 100 82.1636
138.43 100 81.8768
139.532 100 81.6102
140.621 100 81.2862
142.273 100 80.8878
143.185 100 80.1837
144.343 100 79.9312
145.072 100 80.7689
146.827 100 81.0413
147.772 100 80.3858
76.5983 100 81.5333
77.5265 100 82.1559
78.7024 100 81.5732
79.6552 100 82.118
80.6718 100 81.0846
80.8222 100 82.0961
82.9956 100 82.1509
84.2759 100 82.5147
85.3948 100 82.7168
86.5269 100 82.892
87.8099 100 83.2184
88.8946 100 83.2986
90.001 100 81.7237
90.0469 100 82.9164
90.5824 100 83.9949
93.182 100 80.5116
96.7802 100 74.8807
98.4454 100 72.9361
99.8324 100 71.6721
99.7003 100 70.542
100.562 100 69.7392
101.328 100 68.1179
103.804 100 67.4832
106.219 100 66.1205
107.743 100 66.1165
108.97 100 65.7638
108.25 100 67.1782
108.228 100 68.7383
109.351 100 68.6726
111.137 100 69.1249
113.36 100 69.0858
114.966 100 68.751
116.202 100 68.6148
116.222 100 67.1006
115.596 100 65.8448
116.846 100 66.0486
118.293 100 66.1486
120.692 100 67.4783
123.16 100 68.1198
123.929 100 69.7388
124.799 100 70.5469
124.662 100 71.6867
126.055 100 72.9377
127.719 100 74.8923
131.31 100 80.505
133.91 100 83.9949
134.446 100 82.9163
134.492 100 81.7235
135.597 100 83.2986
136.682 100 83.218
137.967 100 82.8909
139.098 100 82.7168
140.217 100 82.5142
141.497 100 82.151
143.67 100 82.0961
143.821 100 81.0846
144.837 100 82.1183
145.79 100 81.5733
146.966 100 82.1558
147.894 100 81.5333
76.4947 100 82.7736
77.4516 100 83.3133
78.4573 100 82.724
79.3974 100 83.3063
80.4052 100 83.5726
80.8266 100 84.7738
82.0447 100 83.1802
83.258 100 83.3357
84.4949 100 83.541
84.6089 100 84.8592
86.2442 100 83.9767
87.4054 100 84.1566
88.4762 100 84.379
89.5528 100 84.162
91.905 100 83.88
92.6923 100 79.2511
97.227 100 76.0024
97.9777 100 75.0167
99.4878 100 72.8212
100.581 100 72.5324
101.917 100 68.9828
[...]
POINT_DATA 1600
SCALARS mass double
LOOKUP_TABLE default
1
1
1
1
1
1
1
1
1
1
1
1
1
1
1
1
1
1
1
1
1
1
1
1
1
1
1
1
1
1
1
1
1
1
1
1
1
1
1
1
1
1
1
1
1
1
1
1
1
1
1
1
1
1
1
1
1
1
1
1
1
1
1
1
1
1
1
1
1
1
1
1
1
1
1
1
1
1
1
1
1
1
1
1
1
1
1
1
1
1
1
1
1
1
1
1
1
1
1
1
1
1
1
1
1
1
1
1
1
1
1
1
1
1
1
1
1
1
1
1
1
1
1
1
1
1
1
1
1
1
1
1
1
1
1
1
1
1
1
1
1
1
1
1
1
1
1
1
1
1
1
1
1
1
1
1
1
1
1
1
1
1
1
1
1
1
1
1
1
1
1
1
1
1
1
1
1
1
1
1
1
1
1
1
1
1
1
1
1
1
1
1
1
1
1
1
1
1
1
1
1
1
1
1
1
1
1
1
1
1
1
1
1
1
1
1
1
1
1
1
1
1
1
1
1
1
1
1
1
1
1
1
1
1
1
1
1
1
1
1
1
1
1
1
1
1
1
1
1
1
1
1
1
1
1
1
1
1
1
1
1
1
1
1
1
1
1
1
1
1
1
1
1
1
1
1
1
1
1
1
1
1
1
1
1
1
1
1
1
1
1
1
1
1
1
1
1
1
1
1
1
1
1
1
1
1
1
1
1
1
1
1
1
1
1
1
1
1
1
1
1
1
1
1
1
1
1
1
1
1
1
1
1
1
1
1
1
1
1
1
1
1
1
1
1
1
1
1
1
1
1
1
1
1
1
1
1
1
1
1
1
1
1
1
1
1
1
1
1
1
1
1
1
1
1
1
1
1
1
1
1
1
1
1
1
1
1
1
1
1
1
1
1
1
1
1
1
1
1
1
1
1
1
1
1
1
1
1
1
1
1
1
1
1
1
1
1
1
1
1
1
1
1
1
1
1
1
1
1
1
1
1
1
1
1
1
1
1
1
1
1
1
1
1
1
1
1
1
1
1
1
1
1
1
1
1
1
1
1
1
1
1
1
1
1
1
1
1
1
1
1
1
1
1
1
1
1
1
1
1
1
1
1
1
1
1
1
1
1
1
1
1
1
1
1
1
1
1
1
1
1
1
1
1
1
1
1
1
1
1
1
1
1
1
1
1
1
1
1
1
1
1
1
1
1
1
1
1
1
1
1
1
1
1
1
1
1
1
1
1
1
1
1
1
1
1
1
1
1
1
1
1
1
1
1
1
1
1
1
1
1
1
1
1
1
1
1
1
1
1
1
1
1
1
1
1
1
1
1
1
1
1
1
1
1
1
1
1
1
1
1
1
1
1
1
1
1
1
1
1
1
1
1
1
1
1
1
1
1
1
1
1
1
1
1
1
1
1
1
1
1
1
1
1
1
1
1
1
1
1
1
1
1
1
1
1
1
1
1
1
1
1
1
1
1
1
1
1
1
1
1
1
1
1
1
1
1
1
1
1
1
1
1
1
1
1
1
1
1
1
1
1
1
1
1
1
1
1
1
1
1
1
1
1
1
1
1
1
1
1
1
1
1
1
1
1
1
1
1
1
1
1
1
1
1
1
1
1
1
1
1
1
1
1
1
1
1
1
1
1
1
1
1
1
1
1
1
1
1
1
1
1
1
1
1
1
1
1
1
1
1
1
1
1
1
1
1
1
1
1
1
1
1
1
1
1
1
1
1
1
1
1
1
1
1
1
1
1
1
1
1
1
1
1
1
1
1
1
1
1
1
1
1
1
1
1
1
1
1
1
1
1
1
1
1
1
1
1
1
1
1
1
1
1
1
1
1
1
1
1
1
1
1
1
1
1
1
1
1
1
1
1
1
1
1
1
1
1
1
1
1
1
1
1
1
1
1
1
1
1
1
1
1
1
1
1
1
1
1
1
1
1
1
1
1
1
1
1
1
1
1
1
1
1
1
1
1
1
1
1
1
1
1
1
1
1
1
1
1
1
1
1
1
1
1
1
1
1
1
1
1
1
1
1
1
1
1
1
1
1
1
1
1
1
1
1
1
1
1
1
1
1
1
1
1
1
1
1
1
1
1
1
1
1
1
1
1
1
1
1
1
1
1
1
1
1
1
1
1
1
1
1
1
1
1
1
1
1
1
1
1
1
1
1
1
1
1
1
1
1
1
1
1
1
1
1
1
1
1
1
1
1
1
1
1
1
1
1
1
1
1
1
1
1
1
1
1
1
1
1
1
1
1
1
1
1
1
1
1
1
1
1
1
1
1
1
1
1
1
1
1
1
1
1
1
1
1
1
1
1
1
1
1
1
1
1
1
1
1
1
1
1
1
1
1
1
1
1
1
1
1
1
1
1
1
1
1
1
1
1
1
1
1
1
1
1
1
1
1
1
1
1
1
1
1
1
1
1
1
1
1
1
1
1
1
1
1
1
1
1
1
1
1
1
1
1
1
1
1
1
1
1
1
1
1
1
1
1
1
1
1
1
1
1
1
1
1
1
1
1
1
1
1
1
1
1
1
1
1
1
1
1
1
1
1
1
1
1
1
1
1
1
1
1
1
1
1
1
1
1
1
1
1
1
1
1
1
1
1
1
1
1
1
1
1
1
1
1
1
1
1
1
1
1
1
1
1
1
1
1
1
1
1
1
1
1
1
1
1
1
1
1
1
1
1
1
1
1
1
1
1
1
1
1
1
1
1
1
1
1
1
1
1
1
1
1
1
1
1
1
1
1
1
1
1
1
1
1
1
1
1
1
1
1
1
1
1
1
1
1
1
1
1
1
1
1
1
1
1
1
1
1
1
1
1
1
1
1
1
1
1
1
1
1
1
1
1
1
1
1
1
1
1
1
1
1
1
1
1
1
1
1
1
1
1
1
1
1
1
1
1
1
1
1
1
1
1
1
1
1
1
1
1
1
1
1
1
1
1
1
1
1
1
1
1
1
1
1
1
1
1
1
1
1
1
1
1
1
1
1
1
1
1
1
1
1
1
1
1
1
1
1
1
1
1
1
1
1
1
1
1
1
1
1
1
1
1
1
1
1
1
1
1
1
1
1
1
1
1
1
1
1
1
1
1
1
1
1
1
1
1
1
1
1
1
1
1
1
1
1
1
1
1
1
1
1
1
1
1
1
1
1
1
1
1
1
1
1
1
1
1
1
1
1
1
1
1
1
1
1
1
1
1
1
1
1
1
1
1
1
1
1
1
1
1
1
1
1
1
1
1
1
1
1
1
1
1
1
1
1
1
1
1
1
1
1
1
1
1
1
1
1
1
1
1
1
1
1
1
1
1
1
1
1
1
1
1
1
1
1
1
1
1
1
1
1
1
1
1
1
1
1
1
1
1
1
1
1
1
1
1
1
1
1
1
1
1
1
1
1
1
1
1
1
1
1
1
1
1
1
1
1
1
1
1
1
1
1
1
1
1
1
1
1
1
1
1
1
1
1
1
1
1
1
1
1
1
1
1
1
1
1
1
1
1
1
1
1
1
1
1
1
1
1
1
1
1
1
1
1
1
1
1
1
1
1
1
1
1
1
1
1
1
1
1
1
1
1
1
1
1
1
1
1
1
1
1
1
1
1
1
1
1
1
1
1
1
1
1
1
VECTORS force double
4.6662 0 13.9081
50.7028 0 -17.0438
-10.6391 0 -12.3539
2.19535 0 22.1081
-54.5329 0 -3.86903
35.1459 0 36.9423
26.6872 0 -4.90166
-10.0805 0 15.4639
10.7149 0 -38.5058
-4.31467 0 -0.423076
-4.03319 0 -6.06421
12.0704 0 -14.6637
17.1352 0 13.3955
7.65728 0 -22.5198
-12.7747 0 1.99319
9.23812 0 6.06349
-30.5984 0 -20.8658
-7.3659 0 -9.24696
0 0 0
-0.993154 0 -1.02379
8.38678 0 16.2988
6.07129 0 -10.5818
-10.6773 0 4.85858
-1.13302 0 11.4252
4.10066 0 -16.8128
8.78402 0 2.95888
-27.4511 0 -9.61154
14.4071 0 17.9761
4.61419 0 -10.6274
-19.7894 0 0.602132
19.7526 0 0.643452
-4.31976 0 -10.8209
-14.3795 0 17.9438
27.6045 0 -9.94801
-8.7891 0 2.95599
-4.18328 0 -16.8181
1.19373 0 11.3992
10.6743 0 4.83331
-6.06682 0 -10.5748
-8.38013 0 16.3066
1.00313 0 -4.90418
0 0 0
6.47741 0 -8.68987
30.652 0 -20.7829
-9.22555 0 6.05713
12.7526 0 1.96701
-7.42635 0 -23.1901
-17.1076 0 13.9397
-12.2225 0 -14.8016
4.16799 0 -5.93663
4.32032 0 -0.423348
-10.6865 0 -38.5342
10.0592 0 15.4568
-26.7092 0 -4.9228
-35.1508 0 36.9429
54.538 0 -3.86931
-2.19558 0 22.1072
10.6378 0 -12.3525
-50.7026 0 -17.0431
-4.66582 0 13.9079
-33.2368 0 30.6799
-2.22293 0 -2.19778
5.25811 0 -13.8202
-12.6213 0 -77.2402
77.0035 0 -40.9823
-18.6854 0 31.8249
33.2091 0 -49.5194
-31.7434 0 22.3921
-24.8299 0 29.6684
28.0862 0 23.8816
-5.71094 0 12.9625
-13.5608 0 -7.7823
-6.45971 0 6.25757
2.27205 0 3.33705
11.1143 0 9.5937
23.4699 0 14.8329
13.8401 0 13.1572
-5.33648 0 -31.8404
6.35309 0 21.8042
-27.9662 0 14.5218
13.0276 0 -0.455386
0 0 0
6.47086 0 -13.6972
0.39587 0 -21.3881
-9.39059 0 -2.68752
-4.76436 0 -12.9995
-52.3265 0 64.7751
66.7709 0 -51.4501
12.8973 0 -4.3001
6.51282 0 1.9529
-7.48864 0 3.78686
-12.8731 0 -4.22169
-66.7879 0 -51.4336
52.4078 0 64.86
4.72265 0 -13.1006
9.36934 0 -2.67284
-0.474114 0 -21.3869
-6.62717 0 -11.9662
0 0 0
-12.9677 0 -0.432553
26.458 0 14.0915
-6.79027 0 25.4184
5.69307 0 -28.909
-13.9637 0 13.1879
-23.4403 0 14.8345
-11.147 0 9.66142
-2.37833 0 3.3353
6.37659 0 6.38363
13.5304 0 -7.69507
5.66932 0 13.0705
-28.1371 0 23.9095
24.8585 0 29.6845
31.7597 0 22.4107
-33.191 0 -49.4658
18.7048 0 31.8413
-76.9599 0 -40.9765
12.5997 0 -77.215
-5.25926 0 -13.8163
2.22411 0 -2.19838
33.2359 0 30.68
13.5881 0 -27.4299
-34.0545 0 -29.4917
-46.8563 0 16.4622
17.9126 0 34.4095
-37.8341 0 43.5739
-20.3954 0 -18.4346
-12.2279 0 32.3688
0.279232 0 20.2703
23.3276 0 -5.51906
-23.0958 0 -5.14073
22.6808 0 -5.67889
-3.32377 0 3.63399
-30.4932 0 -26.397
-17.2307 0 12.5899
-113.423 0 -30.4748
-55.5274 0 8.39276
40.3647 0 16.2892
-28.0983 0 -37.8277
25.7691 0 50.5915
7.55881 0 10.1815
-3.92389 0 -22.4526
11.7926 0 -2.30575
9.3314 0 10.2416
14.9157 0 -11.3527
3.42393 0 6.62069
22.5334 0 1.77618
-2.81191 0 15.3621
-4.85904 0 6.52196
-11.3368 0 9.82303
44.2996 0 -57.2671
-43.0941 0 -59.8391
9.85784 0 9.72738
6.02121 0 4.58271
2.74229 0 14.8832
-23.5603 0 6.89692
-3.36075 0 6.97358
-16.7722 0 -18.3819
-3.10365 0 10.6838
-12.1042 0 -2.38121
3.71838 0 -21.6532
-7.16219 0 10.4369
-25.3739 0 46.9669
27.8551 0 -36.1229
-40.4555 0 16.1175
57.8917 0 7.87657
107.42 0 -28.6115
16.9922 0 12.4766
31.9631 0 -27.917
3.31985 0 3.56205
-22.5935 0 -5.72008
22.9756 0 -5.10563
-23.3041 0 -5.55368
-0.308342 0 20.2478
12.2028 0 32.341
20.4061 0 -18.4348
37.8206 0 43.5594
-17.9116 0 34.4122
46.8508 0 16.4615
34.0558 0 -29.4892
-13.5902 0 -27.4155
9.74309 0 39.5304
-6.54517 0 -14.8491
45.2358 0 26.9616
-39.6846 0 -34.2449
-0.0664978 0 33.9572
0.00914382 0 -30.8863
6.57087 0 12.1177
-11.3827 0 12.6571
-7.71604 0 -27.462
-1.45058 0 -0.753153
11.2225 0 -22.6751
-22.0918 0 -99.0043
-56.9139 0 20.9404
20.8799 0 -1.92946
-57.0292 0 -32.2432
113.331 0 38.8801
29.7225 0 16.4539
12.3637 0 -31.3018
-20.0531 0 -32.6727
5.21271 0 -43.1761
-1.63916 0 -1.43777
23.5219 0 19.4953
-43.6142 0 24.7582
-1.64473 0 1.75958
-10.2603 0 -43.2994
-75.3831 0 36.4732
-72.8378 0 -8.31244
56.3663 0 -9.95998
-12.7588 0 -10.4193
-27.9845 0 74.8171
28.7986 0 76.1348
14.0638 0 -8.45132
-63.2253 0 -12.9463
79.1312 0 -7.45922
88.559 0 38.4825
9.91377 0 -45.2307
0.496019 0 6.49655
41.1195 0 24.47
-22.0518 0 18.9002
1.62464 0 -1.42174
-4.64435 0 -40.9552
20.2481 0 -37.6256
-12.2139 0 -29.8787
-30.5081 0 15.3999
-107.65 0 36.7501
54.538 0 -30.8257
-20.5156 0 -2.04663
56.7999 0 20.8673
21.5784 0 -99.95
-11.5735 0 -22.8879
1.57029 0 -0.728587
7.70425 0 -27.5195
11.3902 0 12.6488
-6.54319 0 12.1385
-0.0207554 0 -30.8771
0.062897 0 33.9504
39.6764 0 -34.238
-45.2355 0 26.9603
6.54465 0 -14.8559
-9.74403 0 39.5143
13.9383 0 3.18116
-22.4062 0 -24.0085
20.536 0 -7.649
46.1268 0 29.6148
-11.1675 0 5.70895
-28.3832 0 3.66708
30.369 0 -2.25197
0.1263 0 -10.7994
-2.41659 0 -8.7603
-5.78892 0 8.56252
9.78845 0 4.67009
-15.5066 0 -6.32411
76.8834 0 8.11809
-2.48626 0 27.2174
25.2998 0 -27.1585
9.58659 0 -16.4337
29.1358 0 40.6584
24.075 0 68.0517
-0.904611 0 24.9059
-8.53482 0 9.73665
-12.789 0 7.56628
16.4532 0 12.4799
32.1083 0 13.3327
-1.82481 0 -16.4464
75.8483 0 -18.0042
-69.2862 0 -24.8186
14.6038 0 37.1692
-2.86748 0 -4.06137
8.9542 0 5.09202
3.86799 0 -7.3235
-3.85961 0 -7.32521
-11.4763 0 3.38634
3.68553 0 -4.17384
-14.6071 0 42.2308
88.8794 0 -35.2397
-89.7821 0 -19.0903
2.10086 0 -14.6305
-32.6075 0 15.7373
-15.3445 0 12.6247
13.1376 0 7.33995
9.59974 0 10.2968
1.28765 0 22.5387
-24.4653 0 72.7982
-30.7324 0 38.9692
-8.71888 0 -18.3406
-20.2673 0 -28.6215
2.89237 0 27.5562
-79.2451 0 10.499
16.1166 0 -6.50995
-9.93467 0 4.77276
6.36045 0 8.5195
2.18368 0 -8.44139
-0.125337 0 -10.7775
-30.3347 0 -2.35716
28.4062 0 3.67364
11.1484 0 5.71332
-46.116 0 29.5923
-20.5286 0 -7.64342
22.3702 0 -24.0043
-13.9396 0 3.18676
-7.77894 0 -1.48441
-9.28779 0 11.1297
40.7033 0 -2.98351
-31.1046 0 -64.4238
31.178 0 32.1296
40.3995 0 -25.3335
-20.7907 0 -67.2399
1.45003 0 23.6785
0.667264 0 -5.83231
-110.797 0 15.2943
108.524 0 5.8197
-11.8526 0 83.1272
29.0642 0 13.1143
-3.43332 0 18.3264
0.87215 0 -0.232324
26.5535 0 -11.5709
2.2707 0 26.0695
-4.22808 0 -34.1548
-13.7796 0 1.07719
4.85648 0 -9.67074
9.70778 0 -4.71293
-24.3181 0 15.4284
6.28285 0 5.80192
-1.35219 0 26.8299
7.37737 0 -7.67403
-30.6154 0 -12.3548
43.6205 0 -4.12189
48.4701 0 45.2461
-6.43017 0 -1.61519
-13.007 0 9.50562
12.7868 0 9.64689
5.91381 0 -1.17361
-67.4856 0 52.9996
-44.0833 0 -53.5591
27.2064 0 -10.8117
-8.70429 0 -14.9652
0.93515 0 31.3322
-6.04437 0 4.90925
24.1749 0 15.8443
-10.752 0 -4.70309
-5.37312 0 -8.66127
12.52 0 2.21626
3.4413 0 -34.183
-3.01915 0 26.4404
-28.4768 0 -11.4893
-0.897585 0 -0.270393
3.50511 0 18.3957
-29.1741 0 12.7981
11.5371 0 84.6859
-108.285 0 5.61496
110.58 0 15.1337
-0.619917 0 -5.94219
-1.54039 0 23.784
20.809 0 -67.2535
-40.4363 0 -25.3534
-31.1926 0 32.1199
31.1223 0 -64.3828
-40.6819 0 -3.00472
9.28435 0 11.1417
7.78799 0 -1.49663
16.7326 0 5.37933
-9.12331 0 21.5579
15.5907 0 -12.4456
18.1516 0 63.0936
-36.1315 0 13.0376
-15.8739 0 -0.758389
35.8251 0 59.5484
-1.23938 0 0.786812
30.1948 0 -23.8081
0.569736 0 -4.93013
4.9482 0 6.37974
46.9614 0 -22.6632
-7.99255 0 -5.31157
-7.86573 0 1.18742
0.260077 0 0.0409932
2.63793 0 -3.17628
9.10948 0 -17.3664
-2.12826 0 26.0922
5.23671 0 -22.0292
-42.2027 0 13.7591
4.2437 0 12.8379
-15.7167 0 -17.0668
7.83239 0 -20.7639
29.1401 0 -18.2926
-1.82239 0 -62.1488
16.0769 0 -51.1017
-12.2834 0 -3.20719
-12.5038 0 -16.9802
-6.02798 0 9.01658
-29.9333 0 -18.2036
-12.8788 0 -16.1935
-2.90434 0 4.41953
12.8189 0 -17.2713
17.589 0 5.11295
-9.33607 0 2.92815
12.1066 0 20.3618
-18.9835 0 -5.61931
-9.69984 0 -20.3295
16.1156 0 -16.9303
-4.51462 0 13.2352
42.2214 0 13.4817
-3.96439 0 -20.9868
2.28566 0 25.7171
-8.27744 0 -14.7517
-3.79692 0 -1.94866
0.874282 0 0.162326
7.74067 0 1.00886
8.06773 0 -4.90931
-46.7004 0 -23.0236
-5.12408 0 6.51388
-0.299366 0 -4.62123
-30.0028 0 -24.0467
1.27765 0 0.803389
-35.831 0 59.5648
15.8791 0 -0.757107
36.1487 0 13.0609
-18.1463 0 63.0432
-15.5975 0 -12.4742
9.14137 0 21.5612
-16.7391 0 5.38531
9.01311 0 0.781255
-8.72526 0 2.47747
-40.0319 0 18.4022
8.76149 0 9.21785
-32.1513 0 -81.2244
3.20737 0 81.1448
13.601 0 4.34022
-23.9291 0 -51.0995
-21.5254 0 19.277
-15.3576 0 28.0164
11.2258 0 -81.9981
8.31033 0 -15.247
-35.009 0 10.6657
-11.5353 0 11.0503
54.4936 0 -7.21745
-5.9708 0 -8.7503
18.2942 0 12.305
-54.3659 0 8.05604
-6.98884 0 7.90368
1.3401 0 -2.13675
-13.6557 0 3.1049
12.7282 0 -70.8937
-52.57 0 -7.01483
-9.77854 0 33.8681
-1.31015 0 29.6341
2.36842 0 68.9268
3.93008 0 -7.29721
2.65513 0 14.8226
10.6534 0 6.52614
2.05314 0 26.3197
14.9172 0 5.19965
35.3901 0 20.14
-16.2628 0 9.58336
-6.47309 0 -10.6163
-3.29478 0 13.5462
-19.0015 0 -26.3954
1.01192 0 21.0925
63.7672 0 -10.947
-18.2586 0 -62.0927
14.3574 0 3.19709
-1.52127 0 -2.1226
9.97181 0 2.04214
53.1564 0 7.5938
-20.8314 0 10.052
6.0815 0 -9.04003
-54.2541 0 -7.43171
11.4605 0 11.062
35.1121 0 10.5582
-7.60479 0 -15.5907
-11.4947 0 -81.6674
15.0243 0 28.3044
21.5993 0 19.1544
23.939 0 -50.9628
-13.6038 0 4.33386
-3.22004 0 81.1742
32.1609 0 -81.2434
-8.75055 0 9.21868
40.0366 0 18.4126
8.74582 0 2.48106
-9.04109 0 0.787146
5.95284 0 -10.7991
15.3899 0 4.78756
7.37979 0 3.87915
-49.7841 0 -11.436
99.8319 0 -43.216
3.65314 0 -5.10989
14.4044 0 6.01473
2.34436 0 -12.2635
9.02424 0 41.6093
-2.92318 0 -21.9383
5.28512 0 13.4921
-47.5075 0 75.1914
25.084 0 -39.6055
-32.7751 0 19.4275
-14.7572 0 9.37018
16.829 0 22.3516
-14.39 0 -22.7813
-33.1819 0 22.6621
45.9963 0 -11.1202
3.42964 0 -0.252084
33.7153 0 37.3261
7.83365 0 -7.94819
25.4465 0 28.5252
14.0689 0 -15.4351
-3.59646 0 19.507
-26.0593 0 14.2977
-7.59525 0 -34.7324
-0.663758 0 -4.42302
42.8521 0 -10.9034
-0.82528 0 -4.34855
5.33795 0 2.33829
-33.179 0 -8.82935
0.936471 0 -1.35982
28.523 0 -68.0553
38.6797 0 38.6131
2.34684 0 17.9216
-6.95788 0 -15.7673
-42.7571 0 32.2052
-8.3481 0 -8.38615
-27.9817 0 28.1472
-6.17739 0 3.28996
-44.1975 0 -10.4345
31.2867 0 13.2042
16.2375 0 -22.1548
-15.7271 0 21.7878
14.8268 0 9.48848
32.1834 0 19.4844
-25.3678 0 -39.7483
47.6951 0 74.9321
-5.37848 0 13.4171
3.17693 0 -22.402
-8.98445 0 41.4632
-2.3436 0 -12.2559
-14.4059 0 6.00979
-3.62385 0 -5.12538
-99.9937 0 -43.0949
49.9485 0 -11.4123
-7.3245 0 3.85461
-15.3873 0 4.78388
-5.94872 0 -10.8002
11.7416 0 -11.6357
-41.111 0 27.9305
51.8741 0 -48.837
3.74617 0 -6.25971
-61.7317 0 62.7139
-0.721252 0 -4.49454
-3.54434 0 -23.0538
-2.73365 0 -18.1055
-17.9389 0 -20.3114
-22.0248 0 38.5723
23.1996 0 -57.3288
-59.4027 0 -0.0833654
19.6047 0 42.1991
-8.03337 0 -2.5819
27.5082 0 -64.7594
-20.0911 0 -13.2012
20.5818 0 12.2882
-24.8521 0 -6.41452
22.1238 0 -25.4448
-10.3223 0 -15.8773
-15.885 0 -69.4928
13.8737 0 45.443
-7.34373 0 -9.82142
-3.71602 0 -1.7352
6.06725 0 -0.339154
7.48572 0 28.6181
-20.4233 0 -28.729
17.253 0 9.90225
-9.41497 0 20.4953
-40.2227 0 -37.5523
29.4052 0 -35.3258
-10.7672 0 23.2531
-15.3683 0 13.2349
-47.8367 0 40.4064
-2.46523 0 41.9095
-9.11658 0 1.47103
10.3 0 -2.07543
7.22056 0 -9.45096
-13.064 0 45.7606
3.58098 0 -66.5036
19.348 0 -9.62752
-20.7481 0 -21.6249
25.4887 0 -6.97152
-21.1534 0 12.5241
20.5274 0 -13.4298
-26.9772 0 -64.3115
7.7081 0 -2.83017
-19.1593 0 42.3907
59.1662 0 -0.062203
-23.6981 0 -57.1136
22.0084 0 39.2125
17.9572 0 -20.2885
2.69695 0 -17.9556
3.54527 0 -23.0491
0.720538 0 -4.48221
61.646 0 62.6203
-3.74249 0 -6.2599
-51.9219 0 -48.872
41.1584 0 27.9498
-11.751 0 -11.632
6.9007 0 -1.6975
15.5177 0 11.2555
-7.35005 0 -8.21202
3.23276 0 -5.38147
41.7403 0 -92.0444
-13.3331 0 -8.82096
29.6712 0 14.1898
22.4073 0 37.9527
-54.5016 0 45.0068
-4.2204 0 5.94106
4.0471 0 -28.4181
-16.4354 0 -4.92949
12.4324 0 0.244691
-3.48796 0 59.5662
-22.4755 0 -30.2215
-3.38806 0 -5.2112
10.3243 0 -17.0744
-14.2713 0 4.24969
-3.10991 0 15.0892
8.40006 0 49.0468
17.4655 0 80.28
26.6267 0 0.652048
11.4093 0 0.305691
-7.19727 0 -41.7251
29.6138 0 -17.5428
-19.3847 0 0.411333
19.965 0 -0.0526296
-40.6865 0 8.09558
-33.3927 0 -2.5517
12.1195 0 -2.57309
-4.31926 0 -2.35233
46.4927 0 -12.6827
23.8715 0 4.05535
-32.0201 0 -1.86497
22.5576 0 1.58139
-30.1054 0 -17.8722
5.26274 0 -42.3276
-5.09528 0 0.48056
-23.551 0 2.20284
-15.4872 0 70.8668
-15.5609 0 50.9068
2.42082 0 15.7093
12.0834 0 3.78711
-10.2542 0 -16.9804
3.21857 0 -5.26457
22.3267 0 -30.5866
3.47056 0 60.1705
-12.3753 0 0.292453
16.6006 0 -8.12252
-4.40004 0 -26.9521
3.82724 0 6.2791
53.6978 0 44.5029
-22.4225 0 37.871
-29.7609 0 14.284
13.3256 0 -8.80533
-41.7799 0 -92.0156
-3.2168 0 -5.37776
7.35864 0 -8.19885
-15.5276 0 11.2502
-6.90095 0 -1.69553
-10.5633 0 20.7627
12.4291 0 10.1286
2.30809 0 -4.54355
-16.8286 0 -13.8077
-6.75113 0 105.116
-38.1827 0 1.08484
-20.4908 0 -22.9406
-3.19882 0 8.39296
16.8644 0 -18.2523
74.5667 0 -11.5327
4.07849 0 5.1426
15.3472 0 57.7443
-4.18727 0 -14.2791
-83.1518 0 6.18625
62.7142 0 4.713
1.44614 0 61.8215
8.49485 0 -61.5269
9.01703 0 6.31372
15.071 0 -6.70207
1.96523 0 -10.4825
5.69626 0 -7.99103
-1.6467 0 -2.61753
-175.313 0 28.8328
167.323 0 -43.2813
-24.8857 0 32.7257
19.7659 0 -27.4691
-62.3545 0 -47.4675
13.9093 0 -24.1967
63.028 0 47.7607
-4.60441 0 3.44867
4.51251 0 3.49915
-7.61056 0 4.31566
-19.3871 0 -24.5993
46.4126 0 -45.2718
-24.8143 0 -33.5592
24.2624 0 32.6985
-162.983 0 -53.6977
168.603 0 25.879
3.12262 0 -0.187852
-7.05007 0 -6.83632
-1.12229 0 -13.0411
-15.2851 0 -6.47886
-9.06489 0 6.19331
-8.34518 0 -62.3632
-1.42761 0 62.7288
-62.3292 0 5.0777
82.3003 0 4.04337
2.14226 0 -7.50879
-15.1763 0 55.9387
-3.85923 0 4.851
-74.0309 0 -11.073
-15.3508 0 -17.6884
3.40516 0 8.34445
20.6728 0 -23.09
38.2219 0 1.10126
6.78101 0 105.084
16.8289 0 -13.8031
-2.29883 0 -4.49627
-12.4083 0 10.1342
10.5323 0 20.7489
10.7349 0 7.63128
4.66674 0 -11.3381
7.0429 0 -10.0934
-7.57257 0 1.07904
1.01871 0 -1.13324
8.36938 0 4.60728
3.68706 0 3.19293
39.8964 0 18.2951
-34.3514 0 25.4391
-8.08973 0 -6.31637
0.699535 0 -22.1601
-49.0773 0 6.30949
49.5971 0 14.7849
-19.5971 0 -22.6975
38.2864 0 31.0312
45.1879 0 -17.4023
-6.1417 0 -4.46794
-7.64609 0 7.28212
-64.5069 0 -5.9175
-25.5879 0 -27.5211
9.86554 0 15.7102
7.50873 0 10.635
-8.77775 0 30.5866
-29.9851 0 -4.815
-24.9032 0 13.0938
23.3528 0 47.2551
32.5823 0 5.62183
-15.363 0 -12.8223
-14.9639 0 0.0840142
9.31329 0 4.82746
-8.24449 0 2.96181
15.1454 0 0.468244
21.9721 0 -15.6134
-18.5317 0 6.13613
-24.2617 0 50.6544
36.4533 0 21.0513
31.4679 0 -4.28234
8.73924 0 29.0833
-9.68765 0 12.2347
-10.7446 0 14.5577
15.7112 0 -24.1443
64.283 0 -7.40379
7.8072 0 7.09144
6.46634 0 -4.70993
-45.5713 0 -17.311
-35.7631 0 32.6541
21.3164 0 -24.1968
-46.8392 0 10.4758
48.7491 0 6.69604
-0.658234 0 -22.1666
8.12869 0 -6.41847
34.5272 0 25.511
-40.0737 0 18.356
-3.60234 0 3.21407
-8.36809 0 4.6178
-1.04047 0 -1.1521
7.56327 0 1.0205
-6.8986 0 -10.1502
-4.66403 0 -11.3398
-10.7294 0 7.61514
-18.6334 0 -33.3606
4.84125 0 13.3655
-15.3013 0 -5.49982
24.0389 0 15.2936
-20.3282 0 6.13108
-2.92841 0 -4.12786
-2.19486 0 4.50482
0.881815 0 5.56438
-2.72172 0 1.18821
18.4633 0 -3.15305
8.70406 0 15.2525
-15.4214 0 -7.17456
3.5756 0 6.61589
0.560095 0 10.1354
40.975 0 40.3645
6.84351 0 -8.98181
30.7791 0 24.1074
-19.1533 0 -38.6431
14.2094 0 10.4051
28.4456 0 17.1783
-40.0041 0 14.6106
33.591 0 -0.770283
-7.55036 0 -0.895209
8.02691 0 -8.81608
-0.987718 0 4.25302
-13.604 0 19.4814
-15.3853 0 8.78959
42.967 0 -23.4314
3.20045 0 -6.25277
-19.9492 0 -25.0457
21.6034 0 -30.0717
-3.49757 0 -1.78721
-44.3616 0 -21.6522
15.3619 0 7.56582
11.9014 0 22.7894
0.469478 0 6.69295
-6.43692 0 -7.89621
7.38108 0 0.0010337
-24.0634 0 5.48615
34.6334 0 13.7578
-28.0351 0 16.9396
-14.6396 0 11.0745
17.8977 0 -38.6321
-30.1797 0 23.5916
-6.67121 0 -8.33591
-38.5535 0 36.7842
1.30095 0 9.93157
-5.78024 0 6.48603
15.7426 0 -6.84678
-8.52459 0 15.3032
-20.4274 0 -3.73208
2.75918 0 1.17063
-1.07126 0 5.48726
2.26486 0 4.5719
2.95657 0 -4.21499
20.3274 0 6.07626
-24.0779 0 15.3856
15.2402 0 -5.52543
-4.93783 0 13.3438
18.6638 0 -33.3904
-70.285 0 -116.536
55.0772 0 51.2441
-21.1106 0 -7.68991
0.863203 0 -22.9071
-117.999 0 -31.5751
109.383 0 29.7143
18.153 0 -9.94584
7.40475 0 -3.29213
-3.09734 0 -1.18381
-12.8752 0 -29.4048
-35.3325 0 57.1986
6.04749 0 -70.5104
29.7262 0 19.701
-7.57257 0 2.78297
2.19813 0 16.2432
-3.55594 0 -20.9534
-89.9487 0 -26.3945
1.27933 0 -2.05208
0.942982 0 8.71189
5.50135 0 -6.75694
50.1161 0 1.25448
17.5115 0 2.48071
1.41795 0 -7.55707
20.7335 0 -32.4667
36.3974 0 10.7598
-3.72837 0 -4.20458
-7.48299 0 -2.60965
11.6288 0 16.5312
14.3346 0 27.9771
2.83336 0 -7.61489
-0.259554 0 -3.34295
-19.062 0 30.1194
-9.56506 0 16.0552
7.23016 0 -2.96773
3.65165 0 -4.19686
-36.5406 0 10.7314
-20.6592 0 -32.892
-1.98498 0 -8.96085
-19.422 0 2.42447
-34.6054 0 -6.34222
-5.03067 0 -6.04412
-0.891081 0 7.55418
-0.886947 0 -1.86197
83.4455 0 -22.2813
9.21153 0 -2.49577
2.78911 0 -12.5455
6.14177 0 3.28706
-25.8671 0 19.321