# vtk DataFile Version 3.0
SiWiRVisFile
ASCII
DATASET UNSTRUCTURED_GRID
POINTS 1600 DOUBLE
76.3872 100 72.1741
74.7921 100 72.3142
75.6521 100 72.9614
77.5767 100 72.6278
78.6443 100 73.0263
79.4969 100 73.864
80.7069 100 72.9704
81.6257 100 73.7431
82.6462 100 74.1324
82.4976 100 73.1234
92.6283 100 65.3174
91.5405 100 65.2886
92.3972 100 66.593
90.4423 100 65.3834
83.015 100 65.617
89.859 100 57.1856
91.3817 100 56.921
90.4599 100 54.6749
86.108 100 47.5957
93.6698 100 52.0738
107.841 100 29.1753
107.978 100 27.1604
106.907 100 26.8987
107.748 100 25.9855
106.238 100 27.7888
111.55 100 29.0595
110.815 100 19.8818
113.281 100 19.5623
110.237 100 22.6105
111.314 100 21.82
112.356 100 21.4566
113.505 100 22.01
111.464 100 20.7152
114.13 100 21.1447
114.853 100 26.3294
118.482 100 28.1962
116.409 100 25.4998
116.461 100 27.3374
115.979 100 28.3144
116.128 100 29.6124
132.942 100 53.173
138.384 100 47.5957
131.224 100 55.1463
133.32 100 56.2961
135.329 100 55.2738
135.362 100 67.9251
133.958 100 64.8638
134.234 100 67.4097
132.772 100 64.7268
133.384 100 65.7635
141.497 100 72.8758
140.635 100 74.2189
141.969 100 73.8074
143.033 100 73.5305
145.003 100 73.7902
145.954 100 73.2956
146.918 100 72.7523
149.019 100 73.0883
150.381 100 71.7933
148.129 100 72.2222
73.654 100 72.787
74.5594 100 73.5365
76.7038 100 73.4387
77.7583 100 73.67
78.6819 100 74.5865
80.6914 100 74.3801
81.9086 100 74.8572
82.8616 100 75.3276
83.6723 100 74.5632
85.3739 100 75.3607
86.6125 100 75.3656
92.3248 100 64.2445
91.3286 100 66.3418
91.1992 100 62.4818
90.8352 100 58.0182
91.2262 100 63.5812
91.9644 100 55.6575
91.6413 100 54.5779
92.6987 100 54.8502
96.3936 100 52.3282
107.244 100 28.0863
95.8609 100 35.9243
106.721 100 40.4411
108.706 100 25.6851
108.978 100 26.8528
111.756 100 27.759
111.047 100 26.7854
110.02 100 26.6836
106.364 100 16.3177
111.439 100 22.923
112.51 100 22.5628
118.553 100 16.3959
113.582 100 24.4508
115.411 100 25.166
115.293 100 27.3148
115.901 100 26.4497
114.682 100 24.0509
119.078 100 40.4465
128.635 100 35.9203
116.96 100 28.6562
127.446 100 52.7631
129.376 100 53.4557
132.241 100 52.3226
134.466 100 55.9873
133.212 100 63.7985
134.078 100 57.1563
132.079 100 60.9607
134.459 100 66.2766
131.531 100 64.2578
138.613 100 75.4759
139.695 100 75.1286
140.767 100 75.3542
141.8 100 75.0035
142.75 100 74.6033
143.955 100 74.1125
145.842 100 74.4155
147.047 100 73.9838
148.008 100 73.3608
149.966 100 73.672
150.946 100 73.0262
73.5977 100 74.1638
74.7676 100 74.6331
75.7307 100 74.0765
76.7446 100 74.6408
77.7726 100 75.0863
79.7316 100 74.9745
80.7682 100 75.5198
81.9032 100 75.9916
82.9037 100 76.5133
83.9446 100 75.5845
85.9982 100 76.3648
85.2586 100 77.4888
87.8496 100 77.1464
92.173 100 63.0673
89.767 100 61.3819
93.0437 100 60.2662
92.6065 100 56.8472
93.08 100 55.8068
93.8926 100 54.6364
95.2487 100 52.5379
97.0657 100 51.3019
104.643 100 40.9243
105.667 100 40.2965
106.645 100 41.6968
97.1592 100 38.0111
107.8 100 41.0376
107.381 100 39.3437
106.174 100 39.2977
110.959 100 23.9062
112.58 100 25.1781
112.535 100 23.9591
113.603 100 23.2814
122.086 100 40.066
117.721 100 38.0373
118.098 100 40.0787
121.193 100 40.6985
118.382 100 41.2659
119.553 100 41.4696
120.798 100 41.7735
126.646 100 51.8638
131.477 100 53.9533
130.37 100 54.3404
133.657 100 55.1934
132.318 100 55.4084
132.823 100 58.7512
132.306 100 59.7022
132.309 100 63.3252
137.027 100 76.3143
138.102 100 76.4875
139.379 100 76.3034
140.584 100 76.3996
141.744 100 76.0017
142.775 100 75.7059
143.816 100 75.3396
144.857 100 74.9113
146.778 100 75.0359
147.975 100 74.63
148.972 100 74.1819
149.777 100 74.8267
151.09 100 74.086
73.796 100 75.2374
74.773 100 75.8324
75.6975 100 75.2284
76.7472 100 75.8296
78.7165 100 75.6495
79.8044 100 76.1721
80.9308 100 76.628
81.9313 100 77.0871
83.9634 100 76.8459
84.8143 100 76.3162
85.0993 100 78.7462
86.7282 100 77.0761
87.363 100 76.18
92.1522 100 61.9505
91.2904 100 61.2564
90.4442 100 60.3573
93.2247 100 57.8121
91.9696 100 57.824
93.6867 100 56.8153
94.597 100 55.8765
94.5677 100 53.5329
97.4717 100 52.473
104.797 100 39.7821
104.861 100 44.8512
105.485 100 41.6296
105.723 100 42.7625
108.102 100 43.1939
110.453 100 43.1148
108.371 100 39.9317
112.208 100 26.2876
114.38 100 25.115
114.374 100 37.5196
115.211 100 42.1537
116.579 100 41.7438
117.662 100 42.138
119.883 100 42.5349
118.775 100 42.7437
119.51 100 39.5439
126.262 100 52.9831
129.348 100 54.5374
129.851 100 55.4187
131.98 100 56.5924
131.947 100 57.7165
131.483 100 58.6919
131.239 100 60.1489
131.412 100 62.082
131.281 100 63.2555
137.402 100 75.2626
138.344 100 77.6621
139.444 100 77.7362
140.59 100 77.6464
141.5 100 77.1508
142.585 100 76.735
143.576 100 76.4994
144.701 100 76.0249
145.851 100 75.5556
147.87 100 75.9228
148.783 100 75.322
149.672 100 75.9241
150.72 100 75.4169
73.6872 100 76.3465
74.6939 100 76.869
75.7638 100 76.3644
77.8267 100 76.3092
78.9467 100 76.9095
79.9961 100 77.251
81.0887 100 77.7636
82.0888 100 78.1921
82.971 100 77.5451
84.1239 100 78.0114
85.0408 100 80.1247
88.5432 100 78.0321
88.4469 100 76.3445
95.065 100 59.3075
91.852 100 60.2045
92.6732 100 59.0176
95.4913 100 58.3073
95.4752 100 57.0543
95.0179 100 54.6048
96.3096 100 54.4737
96.082 100 53.4532
102.931 100 49.6134
105.285 100 43.6847
107.276 100 43.8117
107.001 100 42.7417
108.244 100 44.4544
109.38 100 43.6815
110.418 100 44.235
107.819 100 42.1457
110.647 100 28.3352
109.799 100 29.2964
116.308 100 40.6509
112.876 100 43.1212
114.6 100 43.6859
116.761 100 42.8096
117.328 100 40.9376
117.758 100 43.3089
117.963 100 44.4845
122.924 100 49.2166
128.588 100 52.5925
128.117 100 53.6287
128.856 100 55.6151
130.885 100 56.2138
130.735 100 57.5803
129.835 100 58.3224
130.23 100 62.151
130.774 100 61.127
137.293 100 77.3728
137.476 100 78.4643
139.882 100 79.6342
140.178 100 78.6109
141.47 100 78.3374
142.445 100 77.8525
143.65 100 77.6813
144.489 100 77.0695
145.754 100 76.6637
146.748 100 76.2415
148.697 100 76.5775
149.692 100 77.0442
150.699 100 76.5851
73.4117 100 77.4571
74.5807 100 77.9824
75.6367 100 77.5487
76.8675 100 76.8872
77.881 100 77.3605
78.7571 100 78.0926
80.1817 100 78.3806
81.1192 100 78.998
82.3012 100 79.3708
83.1566 100 78.67
84.2335 100 79.436
86.1647 100 78.1814
88.5784 100 79.4597
87.9213 100 75.2346
89.3858 100 75.7575
93.9336 100 59.4251
96.2118 100 59.1471
97.1235 100 58.6207
96.4985 100 57.4037
95.9847 100 55.4812
97.1416 100 53.8727
99.1977 100 52.7658
103.463 100 48.3344
104.952 100 47.4128
106.185 100 44.1375
106.966 100 44.8878
108.458 100 46.8359
109.482 100 44.7323
111.777 100 42.962
110.954 100 42.149
114.21 100 41.5895
113.569 100 44.015
115.757 100 43.9942
115.688 100 45.1255
116.84 100 43.9731
119.025 100 43.8733
118.903 100 44.95
122.399 100 48.1809
125.174 100 54.0815
127.014 100 53.8647
128.233 100 54.682
130.025 100 56.818
128.321 100 58.3244
129.273 100 59.1949
130.469 100 59.282
136.081 100 75.5718
138.911 100 71.7329
136.777 100 79.2582
138.96 100 78.7684
141.101 100 79.2982
142.34 100 79.1287
143.001 100 80.0058
143.725 100 79.1577
144.68 100 78.5011
145.393 100 77.6885
146.558 100 77.4392
147.593 100 77.0181
148.541 100 77.6861
149.506 100 78.238
150.635 100 77.6931
72.68 100 78.4949
73.6314 100 78.921
75.8139 100 78.6194
76.6685 100 77.9743
77.6708 100 78.4751
77.8261 100 80.9024
80.156 100 79.7443
81.1638 100 80.2252
82.3138 100 80.4258
83.3117 100 79.9724
86.1281 100 80.6473
87.3526 100 78.2405
89.0382 100 80.4454
88.824 100 74.4881
94.7087 100 60.5725
94.3659 100 58.3164
95.7575 100 60.1673
98.2915 100 59.1462
96.7564 100 56.3446
97.0958 100 55.2922
98.4399 100 53.6209
100.207 100 53.5367
104.434 100 49.3212
105.921 100 45.3347
109.427 100 47.2541
108.651 100 45.8073
105.906 100 49.2867
109.812 100 45.9363
105.166 100 50.1946
107.025 100 49.399
119.126 100 50.5627
117.127 100 49.9725
114.973 100 46.2814
116.004 100 50.4658
116.501 100 47.4748
116.28 100 46.1269
116.973 100 45.1279
121.478 100 49.0325
122.461 100 51.2888
126.121 100 54.578
127.152 100 55.3289
128.728 100 56.8304
127.593 100 57.5155
128.064 100 59.569
130.091 100 60.2758
129.575 100 61.3272
136.402 100 74.4838
130.532 100 78.5248
137.907 100 79.5074
140.843 100 80.376
141.917 100 80.0272
143.058 100 81.0672
144.218 100 80.1927
145.369 100 79.3615
146.378 100 79.8571
146.144 100 78.5877
147.453 100 78.1141
148.393 100 78.8209
150.399 100 78.9978
151.417 100 78.4482
72.6937 100 79.6197
73.7883 100 79.9705
74.7021 100 79.1646
75.8087 100 79.7013
76.8034 100 79.2161
76.8314 100 80.483
77.8045 100 79.6544
80.2738 100 80.9453
81.4428 100 81.2657
82.6758 100 81.4525
83.7957 100 81.312
84.4668 100 82.2405
86.064 100 79.4371
86.0185 100 81.775
84.736 100 83.356
90.2974 100 79.7248
95.9743 100 62.4516
97.3908 100 59.7379
98.9953 100 57.262
98.1522 100 57.9693
98.5849 100 55.8476
98.1889 100 54.8038
103.923 100 50.4952
105.393 100 46.4286
107.67 100 46.0784
108.605 100 48.03
107.328 100 47.0483
105.033 100 51.3997
106.051 100 51.2747
107.825 100 52.3674
117.991 100 50.9777
120.343 100 51.1917
120.778 100 52.3188
117.737 100 48.0062
116.593 100 48.6883
117.434 100 46.6748
117.924 100 45.5648
121.909 100 50.0073
125.11 100 55.3933
127.849 100 56.2224
126.712 100 56.933
126.549 100 58.0062
127.364 100 58.6929
128.93 100 60.2042
131.385 100 77.8254
140.197 100 82.3639
139.825 100 80.8063
138.798 100 80.4082
140.692 100 81.4336
141.311 100 82.6398
141.842 100 81.181
144.4 100 81.2137
145.249 100 81.784
145.328 100 80.5741
147.409 100 80.5386
147.216 100 79.182
148.363 100 79.9715
149.322 100 79.3279
150.378 100 80.154
151.382 100 79.6124
72.758 100 80.6781
73.8144 100 81.0735
74.9016 100 80.4038
75.809 100 80.9667
76.5727 100 82.7695
74.8038 100 84.0708
76.9551 100 81.6463
79.1546 100 81.3333
80.1662 100 82.0879
79.0678 100 82.4546
81.6114 100 82.3964
81.7912 100 83.5593
82.8623 100 82.669
83.5703 100 83.4459
85.8286 100 82.9932
89.6685 100 78.6786
96.9658 100 62.1102
97.0682 100 61.0789
99.1905 100 58.4147
100.879 100 57.0189
99.3263 100 54.2006
[...]
POINT_DATA 1600
SCALARS mass double
LOOKUP_TABLE default
1
1
1
1
1
1
1
1
1
1
1
1
1
1
1
1
1
1
1
1
1
1
1
1
1
1
1
1
1
1
1
1
1
1
1
1
1
1
1
1
1
1
1
1
1
1
1
1
1
1
1
1
1
1
1
1
1
1
1
1
1
1
1
1
1
1
1
1
1
1
1
1
1
1
1
1
1
1
1
1
1
1
1
1
1
1
1
1
1
1
1
1
1
1
1
1
1
1
1
1
1
1
1
1
1
1
1
1
1
1
1
1
1
1
1
1
1
1
1
1
1
1
1
1
1
1
1
1
1
1
1
1
1
1
1
1
1
1
1
1
1
1
1
1
1
1
1
1
1
1
1
1
1
1
1
1
1
1
1
1
1
1
1
1
1
1
1
1
1
1
1
1
1
1
1
1
1
1
1
1
1
1
1
1
1
1
1
1
1
1
1
1
1
1
1
1
1
1
1
1
1
1
1
1
1
1
1
1
1
1
1
1
1
1
1
1
1
1
1
1
1
1
1
1
1
1
1
1
1
1
1
1
1
1
1
1
1
1
1
1
1
1
1
1
1
1
1
1
1
1
1
1
1
1
1
1
1
1
1
1
1
1
1
1
1
1
1
1
1
1
1
1
1
1
1
1
1
1
1
1
1
1
1
1
1
1
1
1
1
1
1
1
1
1
1
1
1
1
1
1
1
1
1
1
1
1
1
1
1
1
1
1
1
1
1
1
1
1
1
1
1
1
1
1
1
1
1
1
1
1
1
1
1
1
1
1
1
1
1
1
1
1
1
1
1
1
1
1
1
1
1
1
1
1
1
1
1
1
1
1
1
1
1
1
1
1
1
1
1
1
1
1
1
1
1
1
1
1
1
1
1
1
1
1
1
1
1
1
1
1
1
1
1
1
1
1
1
1
1
1
1
1
1
1
1
1
1
1
1
1
1
1
1
1
1
1
1
1
1
1
1
1
1
1
1
1
1
1
1
1
1
1
1
1
1
1
1
1
1
1
1
1
1
1
1
1
1
1
1
1
1
1
1
1
1
1
1
1
1
1
1
1
1
1
1
1
1
1
1
1
1
1
1
1
1
1
1
1
1
1
1
1
1
1
1
1
1
1
1
1
1
1
1
1
1
1
1
1
1
1
1
1
1
1
1
1
1
1
1
1
1
1
1
1
1
1
1
1
1
1
1
1
1
1
1
1
1
1
1
1
1
1
1
1
1
1
1
1
1
1
1
1
1
1
1
1
1
1
1
1
1
1
1
1
1
1
1
1
1
1
1
1
1
1
1
1
1
1
1
1
1
1
1
1
1
1
1
1
1
1
1
1
1
1
1
1
1
1
1
1
1
1
1
1
1
1
1
1
1
1
1
1
1
1
1
1
1
1
1
1
1
1
1
1
1
1
1
1
1
1
1
1
1
1
1
1
1
1
1
1
1
1
1
1
1
1
1
1
1
1
1
1
1
1
1
1
1
1
1
1
1
1
1
1
1
1
1
1
1
1
1
1
1
1
1
1
1
1
1
1
1
1
1
1
1
1
1
1
1
1
1
1
1
1
1
1
1
1
1
1
1
1
1
1
1
1
1
1
1
1
1
1
1
1
1
1
1
1
1
1
1
1
1
1
1
1
1
1
1
1
1
1
1
1
1
1
1
1
1
1
1
1
1
1
1
1
1
1
1
1
1
1
1
1
1
1
1
1
1
1
1
1
1
1
1
1
1
1
1
1
1
1
1
1
1
1
1
1
1
1
1
1
1
1
1
1
1
1
1
1
1
1
1
1
1
1
1
1
1
1
1
1
1
1
1
1
1
1
1
1
1
1
1
1
1
1
1
1
1
1
1
1
1
1
1
1
1
1
1
1
1
1
1
1
1
1
1
1
1
1
1
1
1
1
1
1
1
1
1
1
1
1
1
1
1
1
1
1
1
1
1
1
1
1
1
1
1
1
1
1
1
1
1
1
1
1
1
1
1
1
1
1
1
1
1
1
1
1
1
1
1
1
1
1
1
1
1
1
1
1
1
1
1
1
1
1
1
1
1
1
1
1
1
1
1
1
1
1
1
1
1
1
1
1
1
1
1
1
1
1
1
1
1
1
1
1
1
1
1
1
1
1
1
1
1
1
1
1
1
1
1
1
1
1
1
1
1
1
1
1
1
1
1
1
1
1
1
1
1
1
1
1
1
1
1
1
1
1
1
1
1
1
1
1
1
1
1
1
1
1
1
1
1
1
1
1
1
1
1
1
1
1
1
1
1
1
1
1
1
1
1
1
1
1
1
1
1
1
1
1
1
1
1
1
1
1
1
1
1
1
1
1
1
1
1
1
1
1
1
1
1
1
1
1
1
1
1
1
1
1
1
1
1
1
1
1
1
1
1
1
1
1
1
1
1
1
1
1
1
1
1
1
1
1
1
1
1
1
1
1
1
1
1
1
1
1
1
1
1
1
1
1
1
1
1
1
1
1
1
1
1
1
1
1
1
1
1
1
1
1
1
1
1
1
1
1
1
1
1
1
1
1
1
1
1
1
1
1
1
1
1
1
1
1
1
1
1
1
1
1
1
1
1
1
1
1
1
1
1
1
1
1
1
1
1
1
1
1
1
1
1
1
1
1
1
1
1
1
1
1
1
1
1
1
1
1
1
1
1
1
1
1
1
1
1
1
1
1
1
1
1
1
1
1
1
1
1
1
1
1
1
1
1
1
1
1
1
1
1
1
1
1
1
1
1
1
1
1
1
1
1
1
1
1
1
1
1
1
1
1
1
1
1
1
1
1
1
1
1
1
1
1
1
1
1
1
1
1
1
1
1
1
1
1
1
1
1
1
1
1
1
1
1
1
1
1
1
1
1
1
1
1
1
1
1
1
1
1
1
1
1
1
1
1
1
1
1
1
1
1
1
1
1
1
1
1
1
1
1
1
1
1
1
1
1
1
1
1
1
1
1
1
1
1
1
1
1
1
1
1
1
1
1
1
1
1
1
1
1
1
1
1
1
1
1
1
1
1
1
1
1
1
1
1
1
1
1
1
1
1
1
1
1
1
1
1
1
1
1
1
1
1
1
1
1
1
1
1
1
1
1
1
1
1
1
1
1
1
1
1
1
1
1
1
1
1
1
1
1
1
1
1
1
1
1
1
1
1
1
1
1
1
1
1
1
1
1
1
1
1
1
1
1
1
1
1
1
1
1
1
1
1
1
1
1
1
1
1
1
1
1
1
1
1
1
1
1
1
1
1
1
1
1
1
1
1
1
1
1
1
1
1
1
1
1
1
1
1
1
1
1
1
1
1
1
1
1
1
1
1
1
1
1
1
1
1
1
1
1
1
1
1
1
1
1
1
1
1
1
1
1
1
1
1
1
1
1
1
1
1
1
1
1
1
1
1
1
1
1
1
1
1
1
1
1
1
1
1
1
1
1
1
1
1
1
1
1
1
1
1
1
1
1
1
1
1
1
1
1
1
1
1
1
1
1
1
1
1
1
1
1
1
1
1
1
1
1
1
1
1
1
1
1
1
1
1
1
1
1
1
1
1
1
1
1
1
1
1
1
1
1
1
1
1
1
1
1
1
1
1
1
1
1
1
1
1
1
1
1
1
1
1
1
1
1
1
1
1
1
1
VECTORS force double
23.6286 0 2.64867
-25.2039 0 5.41459
-1.38599 0 36.3174
-21.6944 0 -27.8813
11.7366 0 5.8643
15.1586 0 -10.3598
5.30701 0 19.7214
-40.32 0 12.7378
63.6805 0 54.5521
6.8183 0 -91.6951
8.83786 0 14.9631
6.53487 0 -30.0532
7.8823 0 -13.3748
2.16315 0 7.71297
0 0 0
14.0361 0 6.80866
-3.51409 0 -14.3054
12.2121 0 0.440199
0 0 0
4.50359 0 3.10313
-5.21269 0 -11.8896
-43.8303 0 10.2513
7.25174 0 -1.27333
-108.2 0 57.1166
-40.6135 0 -10.3585
-6.1322 0 -15.2351
-21.5223 0 -27.4474
-0.0375814 0 2.76091
23.6561 0 1.89139
-8.04121 0 10.8496
11.2034 0 -2.33239
-29.8374 0 30.8542
29.1818 0 32.329
12.4245 0 -22.1753
-41.5482 0 -42.8971
-4.36486 0 0.99834
44.4336 0 -2.01771
21.429 0 29.586
-62.1187 0 -6.64339
6.47237 0 -20.4413
1.79538 0 7.72596
0 0 0
-11.2555 0 -12.8936
-1.81987 0 -9.1881
-2.82717 0 -0.218095
-11.5569 0 -6.18615
-0.981472 0 -27.7936
11.5359 0 -3.14747
-25.5592 0 64.0221
-10.1831 0 17.6882
-20.5699 0 -37.0235
10.4397 0 12.6606
3.08394 0 58.9808
-3.92307 0 -11.2358
-48.8274 0 -14.8445
26.4518 0 1.19195
25.9598 0 12.8368
33.7407 0 -30.0509
2.49081 0 11.2005
-1.49317 0 19.4497
19.2212 0 11.2682
11.7122 0 -15.0136
-25.4978 0 -7.43512
18.7375 0 65.8254
28.578 0 -58.7476
1.25995 0 -2.36556
-89.064 0 27.6012
13.0799 0 19.7605
-6.63165 0 -33.438
11.7758 0 6.4157
-8.70826 0 6.56382
-19.3968 0 -9.6103
-17.885 0 9.02289
-8.05522 0 -13.3988
4.05647 0 -18.6957
-6.45037 0 25.559
-6.91473 0 24.0569
-19.6706 0 0.434764
6.99129 0 -67.869
-16.5451 0 1.13511
50.3445 0 2.56086
0.115984 0 0.186428
39.4507 0 3.00091
109.953 0 -17.5519
-0.172511 0 -20.7912
-18.306 0 2.00899
79.5905 0 14.5283
-28.9813 0 -11.7371
0 0 0
1.40409 0 -7.83428
3.74125 0 10.6499
0 0 0
-49.3776 0 -42.79
15.1988 0 0.843462
3.55541 0 54.8232
22.1975 0 -49.8141
-10.3454 0 0.726371
4.80302 0 109.55
0 0 0
43.7324 0 17.3597
-21.0676 0 -4.79517
-11.6962 0 -11.5791
-5.23799 0 -3.73853
-16.9222 0 12.4219
105.564 0 -14.7687
-1.48164 0 -16.1787
-21.7387 0 -6.81974
-12.4259 0 -2.29578
34.4888 0 53.7798
-9.7202 0 2.1549
-5.24587 0 7.07119
10.3142 0 -22.6153
-36.8431 0 -106.856
78.2485 0 -21.0107
-1.14234 0 34.9356
53.5769 0 25.0618
-10.8584 0 -28.764
-49.219 0 24.7039
19.4762 0 9.27333
-16.8898 0 -27.6692
15.9566 0 -18.5399
-21.0058 0 9.28994
5.70374 0 0.969197
-11.3929 0 -4.28278
-64.5368 0 33.6123
0.33202 0 18.7772
5.19309 0 -4.84922
-9.22892 0 -16.5167
-5.14524 0 -76.1799
14.0349 0 53.8652
-65.6583 0 -64.8316
-9.09241 0 -4.36627
-61.9114 0 120.359
15.5195 0 0.466999
13.5998 0 -9.31279
-3.34074 0 -17.9588
-33.7421 0 -0.471677
34.7559 0 68.3913
-5.13025 0 5.83367
7.62436 0 16.9565
-3.08818 0 21.7631
5.43153 0 -17.5636
46.3586 0 63.928
4.24104 0 -14.6955
-0.115984 0 -0.186428
-15.9364 0 -16.6324
-12.2687 0 15.7044
10.66 0 13.752
-2.06318 0 3.56034
7.88615 0 -11.1865
9.38723 0 -4.12182
-12.1739 0 3.96661
8.30303 0 -5.6694
0.364393 0 0.891255
-40.0341 0 -0.251324
-13.5393 0 11.6562
-1.11105 0 16.3768
-3.65523 0 0.560065
-18.1567 0 -1.63232
5.24094 0 19.1977
-7.42581 0 14.457
52.6066 0 -1.75617
-7.03758 0 10.6608
8.90758 0 15.6826
-8.89038 0 -23.0888
-26.1117 0 19.9416
-14.931 0 -22.8135
-29.6737 0 -14.7866
17.2118 0 11.5716
4.46456 0 -0.402503
0.0136655 0 41.832
-49.6296 0 132.347
17.81 0 -47.9149
-4.56456 0 -10.3768
-5.68252 0 0.984074
38.6853 0 11.872
-44.3908 0 -12.8598
-52.0958 0 -32.3603
54.8348 0 18.3334
-15.3929 0 32.3316
14.1534 0 9.08774
-13.3387 0 -58.3003
29.2747 0 -1.97854
6.04051 0 -47.5141
33.7482 0 41.544
2.67978 0 -24.765
-9.85586 0 -5.05986
24.8832 0 0.198636
-97.17 0 68.2787
105.26 0 -45.5081
12.8788 0 -12.6754
49.6654 0 82.7395
-21.2534 0 -10.2058
13.7782 0 -6.07775
-12.2087 0 -8.45274
9.90356 0 18.0672
-11.1821 0 18.4397
26.3238 0 16.9461
25.5169 0 -21.4655
-2.93218 0 -5.2945
8.7549 0 6.12081
11.2371 0 4.46126
-77.3444 0 -44.1985
18.8911 0 -7.52557
20.4653 0 1.87136
53.2781 0 -77.9738
53.898 0 -12.0618
-7.02365 0 17.0975
-13.9159 0 8.49191
-9.55161 0 0.458197
-18.0322 0 47.8827
0 0 0
5.1259 0 -0.806867
-7.47566 0 -7.31825
3.86507 0 -0.759594
3.77347 0 -2.28304
-14.5573 0 -4.12682
45.8849 0 -102.603
16.7056 0 1.78653
-104.143 0 -44.24
152.741 0 63.7771
-0.0229745 0 -15.1776
1.43966 0 -12.2407
-8.80373 0 27.4022
7.62197 0 -21.555
-6.80212 0 -1.07247
-82.0566 0 -78.1247
-2.08185 0 3.54206
1.18454 0 7.51549
14.54 0 -1.26907
-40.1318 0 -22.8525
59.4757 0 -30.755
-89.1195 0 72.595
73.8438 0 -35.2051
17.0471 0 -20.2559
-44.3391 0 7.32007
-51.3017 0 -27.9444
11.0149 0 7.51087
24.2419 0 26.0242
-5.34958 0 4.98577
13.5638 0 4.40874
2.80771 0 53.2458
-0.629799 0 16.372
-4.0386 0 -47.1226
-24.4693 0 -6.94758
15.592 0 23.1104
-27.8917 0 1.29445
4.74201 0 34.0531
28.9242 0 54.197
0.724296 0 -0.796569
40.8646 0 12.0991
7.32455 0 0.88323
60.7506 0 -108.895
-15.3514 0 7.71503
2.25313 0 6.68105
10.215 0 0.840676
10.3297 0 -32.8695
-16.95 0 -2.49623
15.7272 0 5.26947
-45.7191 0 58.0468
-17.8013 0 -57.7001
16.6745 0 -1.34995
-127.398 0 37.2745
-47.0526 0 46.2441
-81.4538 0 62.8973
2.92267 0 -5.74845
-1.88287 0 -35.3968
20.4033 0 -18.8612
60.7371 0 -68.393
8.56439 0 1.68832
8.85463 0 -9.15639
-30.1047 0 -5.75568
6.68716 0 2.03834
27.5708 0 -4.98821
-2.47541 0 26.1498
40.1084 0 9.1361
15.4905 0 4.01312
-48.7514 0 -53.269
-19.761 0 0.0424418
-3.71495 0 12.605
17.1033 0 -25.2988
-92.4272 0 25.3257
33.3878 0 -20.2157
48.9477 0 43.2585
36.424 0 -50.7349
42.5401 0 25.6475
-0.868849 0 34.3162
-20.1465 0 -0.853876
24.9766 0 -29.9658
-3.96881 0 37.3032
-7.37419 0 12.3785
10.0269 0 -55.8879
15.6445 0 -3.37593
-51.6804 0 30.9804
57.8876 0 2.55251
-32.1432 0 -8.20092
25.9393 0 -6.44292
20.8867 0 6.58339
-4.9386 0 24.7877
-6.79538 0 -20.3845
14.3799 0 12.2162
-5.32457 0 15.1433
-6.83068 0 -32.5862
-14.454 0 22.7831
3.71592 0 45.2903
2.00855 0 -13.3084
-13.5837 0 6.00407
13.2604 0 3.40714
-15.7671 0 -39.342
12.5846 0 -0.348327
-13.4717 0 -44.3736
1.11185 0 2.2959
3.30129 0 -27.1777
9.6941 0 2.20862
-5.6144 0 0.776299
-5.18346 0 -0.152622
-27.3861 0 26.1641
48.7838 0 -23.3754
11.6322 0 34.4302
-19.6998 0 33.9498
70.3532 0 -40.4257
4.22737 0 18.0365
7.38709 0 13.9119
-21.2527 0 5.99508
77.6967 0 39.0086
20.4707 0 23.0069
-35.8942 0 47.7733
-40.0244 0 66.9316
-19.6741 0 -3.04171
11.4461 0 -6.0841
5.37827 0 4.00321
-16.9388 0 2.84563
-21.8875 0 -1.97239
12.8714 0 8.58572
29.1454 0 4.90872
-17.1615 0 -23.4744
29.8438 0 49.0747
-5.61987 0 16.2982
-18.0307 0 -4.20237
1.76685 0 -3.16073
-8.79419 0 37.0031
-82.4318 0 -18.5602
87.8752 0 -1.63792
-23.949 0 24.0845
9.81592 0 -32.6916
19.2428 0 13.1822
0 0 0
-37.2346 0 17.0836
2.08345 0 0.79798
-35.7145 0 47.1005
43.6938 0 -146.192
27.6485 0 -17.2228
2.71423 0 -7.00178
-24.9268 0 0.333528
29.0275 0 11.5011
-12.2565 0 3.66903
13.7413 0 -11.5419
-8.57432 0 -1.87864
12.5289 0 -9.80174
-28.9159 0 6.88662
-36.2547 0 -27.9936
33.1629 0 -19.1377
-28.0816 0 17.4596
28.4809 0 -1.72432
2.18073 0 6.21643
19.6573 0 2.08533
9.41997 0 -5.00193
7.21941 0 -29.6687
-28.5585 0 34.4903
-21.5663 0 3.68091
-9.58066 0 -11.1055
0.435362 0 -20.5176
-29.206 0 -20.3634
-4.17125 0 15.3746
-3.19664 0 -19.1545
-7.55498 0 10.4321
8.35806 0 6.31348
-10.2691 0 -33.5113
-8.11037 0 -10.2541
11.7725 0 -18.777
-40.2408 0 -11.9679
-6.31539 0 -10.106
-8.01568 0 10.5232
-18.5687 0 -32.6324
31.4295 0 3.70789
102.376 0 -78.6439
-0.406276 0 22.2292
-17.771 0 -3.89709
6.59264 0 9.59286
15.2711 0 -28.3258
-16.2203 0 38.4661
-6.24274 0 4.48275
17.1929 0 -9.07393
12.029 0 -5.92308
17.6273 0 -2.90611
6.66537 0 -2.50966
-51.8947 0 -22.1427
-2.00964 0 -22.4389
-2.96578 0 -8.52512
28.7437 0 21.4523
0.745309 0 -12.2529
24.9431 0 12.464
24.1359 0 7.89361
-8.4077 0 -15.8208
-28.4697 0 18.0652
-15.1635 0 -52.5044
9.01072 0 11.6185
-21.3135 0 -2.19267
10.9683 0 -3.33087
10.0788 0 -25.5069
-66.0387 0 140.208
-7.71863 0 28.5632
-13.5222 0 -59.4735
-10.6533 0 26.565
-17.897 0 26.6219
19.6201 0 -12.4247
9.99686 0 0.441271
-37.8637 0 -22.3556
4.37238 0 -6.97172
0.997356 0 21.4553
13.0378 0 -35.6704
9.07746 0 25.7337
22.0254 0 10.2938
-10.4916 0 35.4013
-9.91793 0 -12.9407
-19.8878 0 -22.3594
-0.223265 0 12.5256
4.76409 0 -1.54622
10.8162 0 17.0994
-8.39729 0 23.874
-2.92718 0 -3.22007
-1.0841 0 7.64042
-17.1588 0 -1.79298
4.52523 0 11.3955
20.2498 0 -40.3147
-12.4734 0 9.3135
-57.3121 0 -13.5376
-84.6968 0 -41.4305
12.3138 0 -0.0332411
-15.0285 0 22.5121
-19.9209 0 10.7472
-2.37753 0 -17.9058
10.5824 0 -6.86037
-70.4982 0 -8.39792
-83.9163 0 -56.8957
-3.34038 0 -15.6419
-31.4056 0 58.9617
-69.559 0 1.63066
37.1553 0 -22.0224
94.1453 0 54.3396
-20.7603 0 -49.6443
-115.449 0 11.4243
-1.06732 0 -8.83146
-16.7104 0 -11.7593
11.2402 0 -8.21713
-3.62884 0 0.250376
50.3433 0 50.1958
34.2552 0 32.2686
3.07413 0 -9.43611
-24.7098 0 -9.60632
-19.1021 0 -42.4628
-17.7977 0 -4.49187
-50.6512 0 35.0882
13.8542 0 53.0794
2.13707 0 29.6187
10.3829 0 9.01066
-16.03 0 -15.8641
-5.20988 0 -20.0548
49.5084 0 11.9993
-13.0489 0 -65.3156
-4.74534 0 -9.05108
-60.5765 0 19.2321
90.0441 0 29.3865
-17.7552 0 -18.2421
-6.17728 0 -51.5533
21.8793 0 1.16911
8.54695 0 -4.12661
31.8358 0 41.1506
32.1265 0 -14.4455
-11.4743 0 0.291174
15.7188 0 25.9589
-64.8071 0 -40.8841
-41.1316 0 -15.144
24.1351 0 5.14412
33.8426 0 -57.7299
15.2097 0 5.46158
-49.9048 0 -15.1907
3.86435 0 5.04965
-5.27328 0 -3.26593
-4.16712 0 12.993
7.0343 0 4.85825
14.5413 0 -0.143907
-42.3335 0 -42.0675
41.9481 0 37.8826
2.28787 0 -2.76993
-9.46865 0 -0.622024
49.8711 0 58.7641
23.8574 0 -66.8411
-1.38652 0 2.14796
4.55342 0 5.10106
12.5906 0 31.8804
12.3413 0 0.351827
1.94927 0 -2.146
12.3583 0 -14.5771
-19.5865 0 2.23063
120.632 0 24.1242
16.3158 0 1.56187
-52.8356 0 -39.1239
4.20526 0 0.253078
-17.1309 0 -7.3182
24.9781 0 -14.3608
40.6858 0 48.0535
-12.1169 0 6.91684
20.8818 0 -26.3947
-9.46088 0 -10.4813
31.9828 0 -56.9463
-19.6058 0 -8.25353
-18.6515 0 -10.1696
98.5135 0 0.482888
66.8401 0 -23.4519
-8.02708 0 10.049
-24.286 0 6.28457
26.4964 0 -6.9595
-5.2995 0 -18.2676
34.7762 0 -15.8358
26.3188 0 5.81967
-47.4879 0 7.00992
-1.48623 0 25.5162
3.84584 0 3.56752
-46.094 0 -44.9796
-12.1219 0 0.312718
61.303 0 6.03379
5.37021 0 1.70453
-0.642754 0 41.5873
17.6123 0 -27.0902
-11.2375 0 -1.36648
-13.2293 0 -26.7677
-15.8088 0 4.917
-20.6031 0 13.1166
6.66593 0 -18.0742
1.31766 0 3.94959
-33.206 0 29.2676
102.622 0 28.1206
-21.7515 0 3.98354
33.044 0 -25.4462
44.24 0 17.319
25.9915 0 -79.9014
-40.1314 0 33.7965
6.47762 0 23.9008
0.620833 0 -2.84298
-13.7403 0 -4.38899
-10.3851 0 4.32036
6.94559 0 -14.6808
-4.0061 0 -4.57168
18.3253 0 -16.3226
9.88397 0 -3.6536
8.21616 0 10.1687
-79.0582 0 -36.9802
-11.8442 0 12.1691
-23.083 0 10.3432
48.0495 0 43.3349
-13.3545 0 -0.888641
12.7524 0 -15.8872
39.4764 0 78.172
0.0234467 0 -13.6431
-28.5416 0 -5.10884
-0.079093 0 -23.1052
-4.45807 0 7.08347
-9.00058 0 -2.21828
-5.76391 0 -1.35727
-9.29252 0 12.1586
-63.4503 0 41.1671
-137.156 0 -237.59
105.984 0 253.858
-22.2583 0 6.31974
10.6491 0 -14.7015
-14.568 0 82.155
-3.17641 0 3.6013
2.04775 0 -21.2604
-3.10441 0 -1.26898
7.79972 0 -5.04049
-19.8443 0 -0.945837
19.7177 0 1.04614
5.53854 0 8.89205
-6.09603 0 -2.37406
0.505069 0 29.2377
3.59002 0 -3.62918
19.8281 0 3.04032
19.5305 0 -3.26568
20.6015 0 7.36714
23.1819 0 -12.7296
-13.2871 0 10.0155
9.83069 0 -8.2648
-45.5296 0 0.679794
13.5777 0 62.0375
-19.6376 0 5.13536
-2.10215 0 9.73357
-11.4008 0 -2.57248
8.14851 0 -12.2382
-20.2382 0 -6.24078
-5.13474 0 0.55751
4.29884 0 5.21139
-0.251449 0 4.50135
11.9545 0 9.7573
-36.357 0 7.95021
15.445 0 60.6605
-5.28899 0 1.57772
7.55142 0 6.97478
-12.2563 0 23.5238
29.1196 0 -11.0369
-27.3472 0 6.01673
55.0524 0 -26.3751
56.2643 0 -53.7909
-32.2132 0 65.64
-0.0979695 0 -1.03653
-7.16104 0 -5.63367
-21.596 0 -3.94347
-65.1575 0 -38.6949
66.5435 0 56.2496
-11.1628 0 -0.981802
16.4971 0 -15.8177
-33.9953 0 -28.3126
26.8795 0 -8.4905
-70.202 0 -81.6083
10.1139 0 14.0274
77.9323 0 -0.293454
25.7421 0 3.19544
-15.9932 0 29.8699
-5.46521 0 -16.6303
-11.7686 0 18.0724
2.92334 0 -6.25348
10.7263 0 4.30128
29.881 0 -31.2878
2.78304 0 -4.27124
14.2494 0 11.09
8.68674 0 -3.36135
-32.6696 0 -76.4862
-3.12305 0 3.91188
42.274 0 -15.1142
10.4304 0 -4.03391
17.9977 0 0.802772
6.49673 0 -17.8784
0.013201 0 16.941
3.66517 0 25.8477
-2.41757 0 36.5962
21.7843 0 -8.27773
-1.82855 0 -20.2931
-50.9668 0 21.5946
-67.7832 0 24.1594
9.96899 0 8.67596
-50.2567 0 -9.89322
8.11573 0 23.0846
13.5799 0 -35.6709
84.018 0 -17.7936
0.35025 0 5.01899
-39.668 0 -19.6321
31.1807 0 23.3493
-24.7619 0 3.60836
19.8477 0 -15.5381
5.87956 0 1.35335
19.5429 0 8.05569
12.4692 0 3.09549
-13.228 0 18.1724
13.7219 0 -7.46938
35.1117 0 -36.8942
-53.4188 0 -55.249
2.83979 0 4.29415
-51.7197 0 -3.97156
-9.9093 0 -6.81081
-20.119 0 -17.345
-32.0221 0 -101.117
-31.7513 0 21.6296
-55.0758 0 2.04655
-58.4049 0 -51.2133
-11.7518 0 5.7712
-3.10414 0 -8.67848
-4.82837 0 12.4012
29.5402 0 -6.41684
-26.7627 0 21.3332
-0.907349 0 -29.3071
53.9686 0 18.395
3.51339 0 4.09941
18.7542 0 -9.26087
14.5719 0 14.494
2.82428 0 43.2007
-2.87591 0 -4.14571
0.98704 0 -2.04791
-13.3533 0 -5.89645
-5.30178 0 2.37268
-8.03338 0 -4.88039
-7.61245 0 2.17029
63.162 0 -33.3572
11.3957 0 -8.56346
-18.4776 0 9.71944
-31.8968 0 24.1832
1.10256 0 1.48531
-22.1048 0 47.4394
-72.1033 0 -10.2347
14.3528 0 -13.6125
32.997 0 28.7908
-19.7092 0 14.9198
-10.2376 0 -11.2567
-6.41928 0 -30.112
-22.3833 0 -10.2473
49.7054 0 24.9192
2.38731 0 -8.11026
22.7829 0 15.4018
-8.56084 0 12.5328
57.3218 0 -9.44213
5.4388 0 40.3022
43.2643 0 17.1979
-10.6391 0 5.70596
-52.9533 0 50.767
-3.63628 0 -3.22209
13.0651 0 -10.6393
-46.7085 0 -19.8629
50.7107 0 26.1429
26.6539 0 9.81878
-14.5111 0 -7.39231
-9.72968 0 6.29025
18.1111 0 12.5786
-14.18 0 3.37664
-22.2673 0 9.63154
-9.09021 0 -20.8858
20.5523 0 13.6956
26.6206 0 12.8824
0.397844 0 17.3761
70.0936 0 -7.90431
15.9809 0 81.4821
-34.3105 0 -37.9444
-29.2207 0 -35.2254
-0.576375 0 -14.0838
-5.87474 0 -18.2368
61.3317 0 63.0398
-2.37965 0 -12.3089
-0.422531 0 9.63347
-39.5024 0 6.90466
0.0552671 0 11.6385
8.23593 0 -17.207
-13.8337 0 29.9454
-5.41299 0 20.3563
4.5361 0 -90.0724
68.1633 0 -43.4556
-7.23566 0 -5.89399
-13.0021 0 0.946436
2.20986 0 -1.30695
-9.60835 0 6.59711
-0.712918 0 23.1936
12.0308 0 -12.6497
-22.7648 0 -0.202415
-10.1462 0 5.96229
9.65413 0 -17.9152
7.30146 0 -8.35038
14.2449 0 7.56444
-7.04135 0 -21.1212
-21.4815 0 57.4562
-10.4567 0 90.5715
-9.21396 0 -0.0890717
12.341 0 11.7814
-8.40372 0 4.41975
-3.52284 0 14.1142
5.37528 0 1.00909
0.767546 0 5.1528
-50.988 0 -29.7663
9.76675 0 22.8614
-6.83942 0 -15.436
3.52874 0 2.15452
-84.4358 0 -62.6734
-26.0996 0 -9.57445
-7.68897 0 -100.31
1.44473 0 -0.997071
-15.0414 0 -6.45797
-0.297565 0 -0.965378
-24.8462 0 -4.90322
-1.92379 0 18.2078
-28.3354 0 8.33279
13.0622 0 13.3277
-7.11014 0 -2.93847
-11.9229 0 -25.7825
-4.03572 0 7.04396
7.8302 0 44.7397
15.0956 0 7.0628
-8.7843 0 -41.6127
1.46364 0 18.4451
14.0504 0 -5.12943
-102.67 0 -19.0047
-21.5667 0 15.3369
17.5458 0 -34.4374
-38.1795 0 -17.9672
27.4291 0 -22.6908
9.67686 0 7.59169
-30.116 0 2.03656
77.4049 0 18.9058
-35.5041 0 106.27
15.1494 0 -11.1527
-11.66 0 -18.8642
38.4143 0 -62.9393
11.3351 0 3.44268
11.6858 0 -17.8992
31.9084 0 18.5046
13.9312 0 11.0626
-23.7071 0 -28.2653
-52.2704 0 117.095
-9.39548 0 18.2811
6.32056 0 10.9712
-22.0728 0 3.08301
-3.86815 0 8.46097
-4.39204 0 -2.3068
30.0004 0 -8.8349
15.2419 0 -126.889
6.45811 0 12.6601
11.018 0 5.05596
5.88243 0 -34.6923
-3.31877 0 -7.95233
29.118 0 3.04629
-3.52473 0 -112.918
-51.2183 0 -27.3113
-13.7186 0 -8.5997
-11.9822 0 8.08685
0.476111 0 15.8188
13.868 0 -12.8996
-56.9594 0 34.9143
-0.267399 0 -17.4192
-1.80609 0 5.05214
-10.9088 0 4.34267
-5.98794 0 43.1264
6.82541 0 7.9665
59.085 0 182.918
7.59472 0 -156.261
5.41391 0 60.1916
-18.9093 0 -43.1501
-7.03998 0 -11.837
36.1339 0 21.2785
7.56586 0 13.3115
-1.38346 0 10.2886
19.0377 0 -9.04316
1.95116 0 8.24428
-37.334 0 23.517
-11.8894 0 12.6006
31.855 0 0.844706
11.1162 0 9.41235
-35.5392 0 1.05787
-9.2907 0 49.6473
-6.51184 0 0.0469693
18.4727 0 -36.6157
12.524 0 10.0074
35.5349 0 -51.9218
-0.243225 0 -2.9285
-10.3513 0 54.248
13.3199 0 12.7864
-15.5573 0 -2.63271
-23.9195 0 -6.69881
47.1172 0 16.8398
5.69349 0 25.9362
9.13578 0 14.9258
4.0424 0 0.13856
47.5756 0 33.4256
13.1877 0 -22.0617
-8.60575 0 18.1202
15.8881 0 9.38778
25.0868 0 -2.63426
-3.95159 0 -4.52193
-2.60003 0 -3.52548
-0.290535 0 -5.67341
40.1179 0 -9.28737
6.83856 0 13.9469
-8.28962 0 -1.78535
-0.164506 0 1.22265
-49.2562 0 129.166
17.016 0 5.61198
-21.0651 0 8.98127
14.6069 0 -21.6414
-2.80924 0 3.95897
9.09274 0 -14.4245
39.4012 0 -13.1369
3.13027 0 8.43753
-0.51936 0 0.103981
43.4888 0 30.0449
-18.5869 0 6.62985
15.1856 0 -21.5675
33.1082 0 -49.8076
-13.8258 0 6.84045
-4.03885 0 -6.67777
16.5457 0 -52.4887
-20.067 0 -8.23549
-6.09429 0 -1.94557
-18.7138 0 -5.88843
6.28503 0 5.71672
12.1842 0 -8.74722
93.3164 0 -96.1832