# vtk DataFile Version 3.0
SiWiRVisFile
ASCII
DATASET UNSTRUCTURED_GRID
POINTS 1600 DOUBLE
78.2362 100 75.3784
79.4264 100 75.7096
80.5292 100 76.1102
82.3463 100 75.6036
83.425 100 75.787
84.6693 100 75.9805
85.8808 100 75.9222
86.9232 100 76.2524
88.0403 100 76.501
89.014 100 76.8732
90.2649 100 76.8109
91.1852 100 77.3753
91.5085 100 76.0773
92.4129 100 75.1758
93.291 100 74.2346
95.0201 100 73.4795
96.3204 100 72.7151
97.4666 100 73.19
97.1563 100 72.1672
99.7292 100 73.1014
104.204 100 64.9241
103.103 100 67.4
103.396 100 66.1229
104.384 100 65.9528
105.166 100 65.1829
106.301 100 64.9436
108.714 100 65.2804
109.579 100 64.5549
110.645 100 64.3814
111.504 100 63.5912
112.989 100 63.5912
113.848 100 64.3814
114.913 100 64.5549
115.779 100 65.2804
118.191 100 64.9436
119.326 100 65.1829
120.108 100 65.9528
121.096 100 66.1229
121.389 100 67.4
120.288 100 64.9241
124.763 100 73.1014
127.336 100 72.1672
127.026 100 73.19
128.172 100 72.7151
129.472 100 73.4795
131.201 100 74.2346
132.08 100 75.1758
132.984 100 76.0773
133.307 100 77.3753
134.227 100 76.8109
135.478 100 76.8732
136.452 100 76.501
137.569 100 76.2524
138.612 100 75.9222
139.823 100 75.9805
141.067 100 75.787
142.146 100 75.6036
143.963 100 76.1102
145.066 100 75.7096
146.256 100 75.3784
78.6041 100 76.5196
79.7197 100 76.8632
81.6193 100 76.4071
82.6973 100 76.6582
83.7488 100 76.7955
84.7784 100 77.0369
86.0468 100 77.0244
87.2021 100 77.3151
88.2522 100 77.5994
89.4434 100 77.8462
90.4446 100 78.2668
91.5281 100 78.521
92.2911 100 76.923
93.1651 100 76.0768
94.1999 100 75.8954
94.2393 100 74.8215
96.1604 100 73.9589
98.5971 100 72.8872
99.6247 100 74.2466
100.995 100 72.5886
102.405 100 66.5161
101.176 100 70.7135
104.108 100 70.4937
107.966 100 67.3861
105.793 100 66.1767
106.91 100 65.8709
108.309 100 66.1859
109.414 100 66.1805
110.264 100 65.3471
111.655 100 64.9837
112.837 100 64.9837
114.228 100 65.3471
115.078 100 66.1805
116.183 100 66.1859
117.583 100 65.8709
118.699 100 66.1767
116.527 100 67.3861
120.384 100 70.4937
123.316 100 70.7135
122.088 100 66.5161
123.498 100 72.5886
124.868 100 74.2466
125.895 100 72.8872
128.332 100 73.9589
130.253 100 74.8215
130.293 100 75.8954
131.327 100 76.0768
132.201 100 76.923
132.964 100 78.521
134.048 100 78.2668
135.049 100 77.8462
136.24 100 77.5994
137.29 100 77.3151
138.446 100 77.0244
139.714 100 77.0369
140.744 100 76.7955
141.795 100 76.6582
142.873 100 76.4071
144.773 100 76.8632
145.888 100 76.5196
78.9006 100 77.5691
80.004 100 77.9605
80.8609 100 77.2155
81.9205 100 77.5745
82.9771 100 77.8134
84.0642 100 77.8575
85.1796 100 78.0116
86.4912 100 78.1934
87.585 100 78.4293
88.5809 100 78.6033
89.5999 100 79.0091
90.7696 100 79.2887
91.9903 100 79.4301
92.4635 100 77.9908
94.5558 100 77.1852
95.2415 100 76.3002
95.6868 100 75.193
96.8761 100 74.7465
97.9154 100 74.3776
100.797 100 73.6878
102.222 100 72.383
103.102 100 70.8527
104.781 100 71.2487
106.104 100 70.9108
107.124 100 69.9784
108.111 100 71.6546
109.4 100 71.3697
108.292 100 70.6287
110.404 100 66.5746
111.718 100 66.285
112.774 100 66.285
114.088 100 66.5746
116.2 100 70.6287
115.093 100 71.3697
116.382 100 71.6546
117.368 100 69.9784
118.388 100 70.9108
119.711 100 71.2487
121.391 100 70.8527
122.27 100 72.383
123.696 100 73.6878
126.577 100 74.3776
127.616 100 74.7465
128.806 100 75.193
129.251 100 76.3002
129.937 100 77.1852
132.029 100 77.9908
132.502 100 79.4301
133.723 100 79.2887
134.892 100 79.0091
135.912 100 78.6033
136.907 100 78.4293
138.001 100 78.1934
139.313 100 78.0116
140.428 100 77.8575
141.515 100 77.8134
142.572 100 77.5745
143.631 100 77.2155
144.488 100 77.9605
145.592 100 77.5691
79.0365 100 78.667
80.0747 100 79.1035
80.9906 100 78.3571
82.2499 100 78.6688
83.391 100 78.881
84.4811 100 79.0625
85.7794 100 79.0976
86.8894 100 79.3928
87.893 100 79.5469
88.8296 100 79.8787
89.898 100 80.1706
91.1827 100 80.3722
92.2177 100 80.5698
93.3565 100 78.918
93.5154 100 77.7816
95.7467 100 77.8103
96.3545 100 76.5793
97.0709 100 75.8112
98.4375 100 75.707
99.4493 100 75.3664
100.732 100 74.8967
102.156 100 73.5448
103.578 100 72.5859
104.76 100 72.3022
106.119 100 72.0914
107.008 100 71.4653
108.743 100 72.4769
109.816 100 72.727
110.338 100 70.4154
111.566 100 67.3079
112.927 100 67.3079
114.154 100 70.4154
114.676 100 72.727
115.75 100 72.4769
117.484 100 71.4653
118.374 100 72.0914
119.732 100 72.3022
120.915 100 72.5859
122.336 100 73.5448
123.76 100 74.8967
125.043 100 75.3664
126.055 100 75.707
127.421 100 75.8112
128.138 100 76.5793
128.746 100 77.8103
130.977 100 77.7816
131.136 100 78.918
132.275 100 80.5698
133.31 100 80.3722
134.594 100 80.1706
135.663 100 79.8787
136.599 100 79.5469
137.603 100 79.3928
138.713 100 79.0976
140.011 100 79.0625
141.101 100 78.881
142.243 100 78.6688
143.502 100 78.3571
144.418 100 79.1035
145.456 100 78.667
79.08 100 79.7635
80.0687 100 80.1833
81.1097 100 79.4581
82.6059 100 79.7073
83.7394 100 79.9663
85.0977 100 79.9746
86.2243 100 80.1634
87.3459 100 80.4624
88.3071 100 80.8922
89.3132 100 81.0429
90.4055 100 81.1864
91.4618 100 81.4163
93.5105 100 80.3874
94.3563 100 79.6402
94.5225 100 78.2756
96.3486 100 78.7996
97.043 100 77.4533
97.6983 100 76.6844
98.863 100 76.6764
100.031 100 76.2471
101.826 100 74.7224
102.893 100 74.3211
104.58 100 74.1211
105.868 100 73.4953
106.931 100 73.0299
107.938 100 73.476
109.234 100 73.5838
110.411 100 73.7318
110.503 100 71.8887
111.621 100 70.7715
112.871 100 70.7715
113.99 100 71.8887
114.082 100 73.7318
115.259 100 73.5838
116.555 100 73.476
117.561 100 73.0299
118.624 100 73.4953
119.912 100 74.1211
121.599 100 74.3211
122.667 100 74.7224
124.462 100 76.2471
125.629 100 76.6764
126.794 100 76.6844
127.449 100 77.4533
128.144 100 78.7996
129.97 100 78.2756
130.136 100 79.6402
130.982 100 80.3874
133.031 100 81.4163
134.087 100 81.1864
135.179 100 81.0429
136.185 100 80.8922
137.147 100 80.4624
138.268 100 80.1634
139.395 100 79.9746
140.753 100 79.9663
141.887 100 79.7073
143.383 100 79.4581
144.424 100 80.1833
145.412 100 79.7635
79.0989 100 80.8379
80.1295 100 81.2939
81.0944 100 80.6731
82.2606 100 80.8051
83.3197 100 81.0366
84.397 100 80.8018
85.5444 100 81.0612
86.6387 100 81.1822
87.4694 100 81.8331
88.6069 100 82.004
89.6647 100 82.1886
90.9583 100 82.5273
92.3345 100 82.1542
93.2916 100 81.6327
94.8415 100 80.643
95.3252 100 79.3086
97.1468 100 79.8014
97.5098 100 78.7271
98.1903 100 77.7438
99.7556 100 77.4225
101.194 100 75.9586
102.592 100 75.4993
103.772 100 75.4065
104.872 100 75.1922
105.931 100 74.548
107.244 100 74.3275
108.47 100 74.479
109.686 100 74.7023
111.704 100 73.8031
111.085 100 72.8587
113.408 100 72.8587
112.789 100 73.8031
114.807 100 74.7023
116.022 100 74.479
117.248 100 74.3275
118.562 100 74.548
119.62 100 75.1922
120.721 100 75.4065
121.901 100 75.4993
123.298 100 75.9586
124.737 100 77.4225
126.302 100 77.7438
126.983 100 78.7271
127.346 100 79.8014
129.167 100 79.3086
129.651 100 80.643
131.201 100 81.6327
132.158 100 82.1542
133.534 100 82.5273
134.828 100 82.1886
135.886 100 82.004
137.023 100 81.8331
137.854 100 81.1822
138.948 100 81.0612
140.095 100 80.8018
141.173 100 81.0366
142.232 100 80.8051
143.398 100 80.6731
144.363 100 81.2939
145.393 100 80.8379
79.3914 100 81.9529
80.4039 100 82.4308
81.2691 100 81.7136
82.2601 100 82.0289
83.7503 100 82.1464
84.773 100 81.8482
85.9622 100 82.2381
86.8081 100 82.8618
88.0039 100 82.9468
89.0446 100 83.069
90.1264 100 83.2654
91.9703 100 83.2214
93.2805 100 82.7976
94.396 100 82.5458
95.3282 100 81.6451
95.8114 100 80.3538
97.8909 100 80.5725
98.3563 100 79.388
99.2414 100 78.5586
100.86 100 77.0507
102.092 100 76.5013
103.243 100 76.3914
104.572 100 76.2843
105.891 100 75.6291
107.102 100 75.3785
108.47 100 75.5993
109.569 100 75.7351
110.761 100 75.1819
110.68 100 76.3541
111.577 100 75.8221
112.915 100 75.8221
113.812 100 76.3541
113.731 100 75.1819
114.923 100 75.7351
116.022 100 75.5993
117.39 100 75.3785
118.601 100 75.6291
119.92 100 76.2843
121.249 100 76.3914
122.4 100 76.5013
123.632 100 77.0507
125.251 100 78.5586
126.136 100 79.388
126.601 100 80.5725
128.681 100 80.3538
129.164 100 81.6451
130.096 100 82.5458
131.212 100 82.7976
132.522 100 83.2214
134.366 100 83.2654
135.448 100 83.069
136.488 100 82.9468
137.684 100 82.8618
138.53 100 82.2381
139.719 100 81.8482
140.742 100 82.1464
142.232 100 82.0289
143.223 100 81.7136
144.089 100 82.4308
145.101 100 81.9529
79.4505 100 83.0758
80.3879 100 83.6542
81.4637 100 82.9355
82.3596 100 83.8148
82.9712 100 82.9273
84.1245 100 83.139
85.2298 100 83.0675
86.0054 100 83.8182
87.0402 100 84.0168
88.0993 100 84.0459
89.1432 100 84.2119
90.224 100 84.4323
91.2982 100 84.1266
92.6599 100 83.9748
93.7398 100 83.9508
94.7717 100 83.6522
96.737 100 80.8777
99.0918 100 80.4428
99.7723 100 79.5697
100.436 100 78.3758
101.677 100 78.1624
102.526 100 77.4401
103.966 100 77.2256
105.438 100 76.9523
106.545 100 76.6431
107.751 100 76.5596
108.2 100 77.5169
109.623 100 76.8291
110.526 100 77.4286
111.665 100 77.0396
112.828 100 77.0397
113.966 100 77.4286
114.869 100 76.8291
116.292 100 77.5169
116.742 100 76.5596
117.948 100 76.6431
119.055 100 76.9523
120.527 100 77.2256
121.966 100 77.4401
122.816 100 78.1624
124.057 100 78.3758
124.72 100 79.5697
125.401 100 80.4428
127.755 100 80.8777
129.721 100 83.6522
130.753 100 83.9508
131.833 100 83.9748
133.194 100 84.1266
134.268 100 84.4323
135.349 100 84.2119
136.393 100 84.0459
137.452 100 84.0168
138.487 100 83.8182
139.263 100 83.0675
140.368 100 83.139
141.521 100 82.9273
142.133 100 83.8148
143.029 100 82.9355
144.104 100 83.6542
145.042 100 83.0758
79.2419 100 84.6421
80.4869 100 84.9483
81.3528 100 84.2598
82.5425 100 84.834
83.454 100 84.1354
84.5832 100 84.0768
85.4302 100 84.7182
86.5066 100 84.905
87.5776 100 85.0784
88.6472 100 85.1633
89.7333 100 85.362
91.1116 100 85.2584
92.0642 100 84.8875
93.2723 100 84.8852
94.5468 100 84.6737
95.9109 100 83.099
96.3094 100 81.8775
97.4775 100 81.588
100.361 100 80.8506
100.883 100 79.5924
[...]
POINT_DATA 1600
SCALARS mass double
LOOKUP_TABLE default
1
1
1
1
1
1
1
1
1
1
1
1
1
1
1
1
1
1
1
1
1
1
1
1
1
1
1
1
1
1
1
1
1
1
1
1
1
1
1
1
1
1
1
1
1
1
1
1
1
1
1
1
1
1
1
1
1
1
1
1
1
1
1
1
1
1
1
1
1
1
1
1
1
1
1
1
1
1
1
1
1
1
1
1
1
1
1
1
1
1
1
1
1
1
1
1
1
1
1
1
1
1
1
1
1
1
1
1
1
1
1
1
1
1
1
1
1
1
1
1
1
1
1
1
1
1
1
1
1
1
1
1
1
1
1
1
1
1
1
1
1
1
1
1
1
1
1
1
1
1
1
1
1
1
1
1
1
1
1
1
1
1
1
1
1
1
1
1
1
1
1
1
1
1
1
1
1
1
1
1
1
1
1
1
1
1
1
1
1
1
1
1
1
1
1
1
1
1
1
1
1
1
1
1
1
1
1
1
1
1
1
1
1
1
1
1
1
1
1
1
1
1
1
1
1
1
1
1
1
1
1
1
1
1
1
1
1
1
1
1
1
1
1
1
1
1
1
1
1
1
1
1
1
1
1
1
1
1
1
1
1
1
1
1
1
1
1
1
1
1
1
1
1
1
1
1
1
1
1
1
1
1
1
1
1
1
1
1
1
1
1
1
1
1
1
1
1
1
1
1
1
1
1
1
1
1
1
1
1
1
1
1
1
1
1
1
1
1
1
1
1
1
1
1
1
1
1
1
1
1
1
1
1
1
1
1
1
1
1
1
1
1
1
1
1
1
1
1
1
1
1
1
1
1
1
1
1
1
1
1
1
1
1
1
1
1
1
1
1
1
1
1
1
1
1
1
1
1
1
1
1
1
1
1
1
1
1
1
1
1
1
1
1
1
1
1
1
1
1
1
1
1
1
1
1
1
1
1
1
1
1
1
1
1
1
1
1
1
1
1
1
1
1
1
1
1
1
1
1
1
1
1
1
1
1
1
1
1
1
1
1
1
1
1
1
1
1
1
1
1
1
1
1
1
1
1
1
1
1
1
1
1
1
1
1
1
1
1
1
1
1
1
1
1
1
1
1
1
1
1
1
1
1
1
1
1
1
1
1
1
1
1
1
1
1
1
1
1
1
1
1
1
1
1
1
1
1
1
1
1
1
1
1
1
1
1
1
1
1
1
1
1
1
1
1
1
1
1
1
1
1
1
1
1
1
1
1
1
1
1
1
1
1
1
1
1
1
1
1
1
1
1
1
1
1
1
1
1
1
1
1
1
1
1
1
1
1
1
1
1
1
1
1
1
1
1
1
1
1
1
1
1
1
1
1
1
1
1
1
1
1
1
1
1
1
1
1
1
1
1
1
1
1
1
1
1
1
1
1
1
1
1
1
1
1
1
1
1
1
1
1
1
1
1
1
1
1
1
1
1
1
1
1
1
1
1
1
1
1
1
1
1
1
1
1
1
1
1
1
1
1
1
1
1
1
1
1
1
1
1
1
1
1
1
1
1
1
1
1
1
1
1
1
1
1
1
1
1
1
1
1
1
1
1
1
1
1
1
1
1
1
1
1
1
1
1
1
1
1
1
1
1
1
1
1
1
1
1
1
1
1
1
1
1
1
1
1
1
1
1
1
1
1
1
1
1
1
1
1
1
1
1
1
1
1
1
1
1
1
1
1
1
1
1
1
1
1
1
1
1
1
1
1
1
1
1
1
1
1
1
1
1
1
1
1
1
1
1
1
1
1
1
1
1
1
1
1
1
1
1
1
1
1
1
1
1
1
1
1
1
1
1
1
1
1
1
1
1
1
1
1
1
1
1
1
1
1
1
1
1
1
1
1
1
1
1
1
1
1
1
1
1
1
1
1
1
1
1
1
1
1
1
1
1
1
1
1
1
1
1
1
1
1
1
1
1
1
1
1
1
1
1
1
1
1
1
1
1
1
1
1
1
1
1
1
1
1
1
1
1
1
1
1
1
1
1
1
1
1
1
1
1
1
1
1
1
1
1
1
1
1
1
1
1
1
1
1
1
1
1
1
1
1
1
1
1
1
1
1
1
1
1
1
1
1
1
1
1
1
1
1
1
1
1
1
1
1
1
1
1
1
1
1
1
1
1
1
1
1
1
1
1
1
1
1
1
1
1
1
1
1
1
1
1
1
1
1
1
1
1
1
1
1
1
1
1
1
1
1
1
1
1
1
1
1
1
1
1
1
1
1
1
1
1
1
1
1
1
1
1
1
1
1
1
1
1
1
1
1
1
1
1
1
1
1
1
1
1
1
1
1
1
1
1
1
1
1
1
1
1
1
1
1
1
1
1
1
1
1
1
1
1
1
1
1
1
1
1
1
1
1
1
1
1
1
1
1
1
1
1
1
1
1
1
1
1
1
1
1
1
1
1
1
1
1
1
1
1
1
1
1
1
1
1
1
1
1
1
1
1
1
1
1
1
1
1
1
1
1
1
1
1
1
1
1
1
1
1
1
1
1
1
1
1
1
1
1
1
1
1
1
1
1
1
1
1
1
1
1
1
1
1
1
1
1
1
1
1
1
1
1
1
1
1
1
1
1
1
1
1
1
1
1
1
1
1
1
1
1
1
1
1
1
1
1
1
1
1
1
1
1
1
1
1
1
1
1
1
1
1
1
1
1
1
1
1
1
1
1
1
1
1
1
1
1
1
1
1
1
1
1
1
1
1
1
1
1
1
1
1
1
1
1
1
1
1
1
1
1
1
1
1
1
1
1
1
1
1
1
1
1
1
1
1
1
1
1
1
1
1
1
1
1
1
1
1
1
1
1
1
1
1
1
1
1
1
1
1
1
1
1
1
1
1
1
1
1
1
1
1
1
1
1
1
1
1
1
1
1
1
1
1
1
1
1
1
1
1
1
1
1
1
1
1
1
1
1
1
1
1
1
1
1
1
1
1
1
1
1
1
1
1
1
1
1
1
1
1
1
1
1
1
1
1
1
1
1
1
1
1
1
1
1
1
1
1
1
1
1
1
1
1
1
1
1
1
1
1
1
1
1
1
1
1
1
1
1
1
1
1
1
1
1
1
1
1
1
1
1
1
1
1
1
1
1
1
1
1
1
1
1
1
1
1
1
1
1
1
1
1
1
1
1
1
1
1
1
1
1
1
1
1
1
1
1
1
1
1
1
1
1
1
1
1
1
1
1
1
1
1
1
1
1
1
1
1
1
1
1
1
1
1
1
1
1
1
1
1
1
1
1
1
1
1
1
1
1
1
1
1
1
1
1
1
1
1
1
1
1
1
1
1
1
1
1
1
1
1
1
1
1
1
1
1
1
1
1
1
1
1
1
1
1
1
1
1
1
1
1
1
1
1
1
1
1
1
1
1
1
1
1
1
1
1
1
1
1
1
1
1
1
1
1
1
1
1
1
1
1
1
1
1
1
1
1
1
1
1
1
1
1
1
1
1
1
1
1
1
1
1
1
1
1
1
1
1
1
1
1
1
1
1
1
1
1
1
1
1
1
1
1
1
1
1
1
1
1
1
1
1
1
1
1
1
1
1
1
1
1
1
1
1
1
1
1
1
1
1
1
1
1
1
1
1
1
1
1
1
1
1
1
1
1
1
1
1
1
1
1
1
VECTORS force double
15.7014 0 14.5671
-4.57728 0 16.894
-0.134614 0 2.27177
-0.908654 0 -14.0497
9.91736 0 -22.7793
-11.2378 0 -21.8925
-24.8254 0 -0.13629
7.26333 0 4.42437
-58.4295 0 -11.465
73.7001 0 -33.5132
-27.1231 0 3.41843
31.5962 0 17.1948
7.36003 0 10.9734
7.84393 0 9.26712
-7.94197 0 9.40829
13.3814 0 8.11828
-95.9619 0 86.6611
3.7282 0 34.5123
97.0809 0 -88.4315
11.809 0 8.30491
-134.636 0 -73.7603
2.48301 0 -12.4394
-84.2247 0 13.5908
120.538 0 36.1941
142.886 0 34.0988
-14.3713 0 7.88858
65.2768 0 -124.176
-48.4553 0 -25.3463
52.9117 0 -53.8345
0.968762 0 15.6476
-0.968773 0 15.6476
-52.9116 0 -53.8345
48.4554 0 -25.3464
-65.2768 0 -124.176
14.3713 0 7.88858
-142.886 0 34.0988
-120.538 0 36.1941
84.2247 0 13.5908
-2.48301 0 -12.4394
134.636 0 -73.7603
-11.809 0 8.30488
-97.081 0 -88.4316
-3.72822 0 34.5124
95.962 0 86.6611
-13.3814 0 8.11828
7.942 0 9.40828
-7.84393 0 9.26712
-7.36003 0 10.9734
-31.5962 0 17.1948
27.1231 0 3.41842
-73.7001 0 -33.5132
58.4295 0 -11.465
-7.26333 0 4.42437
24.8254 0 -0.136288
11.2378 0 -21.8925
-9.91737 0 -22.7793
0.908656 0 -14.0497
0.134613 0 2.27177
4.57728 0 16.894
-15.7014 0 14.5671
8.20796 0 -23.6139
10.5337 0 -12.6066
-11.1915 0 19.7651
-27.8914 0 18.8849
7.78134 0 25.9678
44.9113 0 -9.20229
1.07779 0 18.5214
-12.3896 0 7.86132
1.63877 0 -20.5036
-9.01573 0 24.7256
6.56687 0 -27.7793
-41.616 0 -85.4202
-4.75939 0 -22.42
-53.8937 0 8.68481
42.4297 0 22.3837
8.93332 0 -18.7719
-26.412 0 -30.3003
-5.2237 0 7.03659
16.1194 0 -2.53778
7.44874 0 3.29953
-23.7867 0 10.6206
1.55418 0 2.29084
-38.6217 0 -78.7813
3.41207 0 -14.157
-2.25677 0 -20.9478
3.36543 0 7.53754
-71.9087 0 136.625
-15.9087 0 -24.2686
7.0754 0 103.878
-3.94828 0 1.66458
3.94828 0 1.66458
-7.07549 0 103.878
15.9086 0 -24.2686
71.9087 0 136.625
-3.36543 0 7.53754
2.25677 0 -20.9478
-3.41207 0 -14.157
38.6232 0 -78.7836
-1.55418 0 2.29084
23.7867 0 10.6206
-7.44875 0 3.29955
-16.1193 0 -2.53782
5.22368 0 7.03659
26.4119 0 -30.3003
-8.93335 0 -18.7718
-42.4297 0 22.3837
53.8938 0 8.68482
4.75938 0 -22.42
41.6161 0 -85.4202
-6.56692 0 -27.7793
9.01575 0 24.7256
-1.63877 0 -20.5036
12.3896 0 7.86132
-1.07779 0 18.5214
-44.9113 0 -9.20229
-7.78134 0 25.9678
27.8914 0 18.8849
11.1915 0 19.7651
-10.5337 0 -12.6066
-8.20796 0 -23.6139
0.482138 0 20.4641
-41.1525 0 -7.51203
-17.8583 0 2.38733
-17.7865 0 -10.5199
8.91993 0 -11.3723
2.82113 0 35.5719
29.212 0 48.5899
-13.0317 0 1.89684
-118.991 0 12.5686
98.9562 0 59.7145
14.804 0 13.3061
-11.5192 0 50.3822
26.8916 0 81.1242
-2.51735 0 20.1314
-4.59881 0 -12.0469
12.6809 0 -5.95858
8.75787 0 1.2507
0.830813 0 10.7766
6.82641 0 -6.57812
-6.51404 0 16.1334
-3.29212 0 10.5054
-23.3822 0 13.1035
74.3887 0 34.4585
-30.2641 0 -9.52045
2.33232 0 18.157
-33.6938 0 6.07805
-4.5237 0 12.2515
4.81278 0 -45.3055
42.2068 0 -0.662161
-35.3794 0 -69.3221
35.3792 0 -69.323
-42.2068 0 -0.662167
-4.81251 0 -45.3051
4.52367 0 12.2515
33.6938 0 6.07706
-2.33237 0 18.1573
30.2632 0 -9.51992
-74.3901 0 34.4604
23.3824 0 13.1036
3.2921 0 10.5054
6.51404 0 16.1334
-6.82642 0 -6.57812
-0.830788 0 10.7767
-8.75787 0 1.25071
-12.681 0 -5.95855
4.5988 0 -12.047
2.5173 0 20.1313
-26.8916 0 81.1242
11.5192 0 50.3822
-14.804 0 13.3061
-98.9562 0 59.7145
118.991 0 12.5686
13.0317 0 1.89684
-29.212 0 48.5899
-2.82113 0 35.5719
-8.91993 0 -11.3723
17.7865 0 -10.5199
17.8583 0 2.38733
41.1525 0 -7.51203
-0.482139 0 20.464
12.9913 0 -9.67533
-12.0105 0 -27.4987
37.9217 0 1.21246
-14.0332 0 -10.0886
-9.54608 0 -10.4423
9.10309 0 -17.4699
-1.67613 0 -10.3465
-32.3543 0 -89.8683
-20.3831 0 -62.1777
124.755 0 42.2893
44.5444 0 -47.5236
-49.7879 0 -42.1957
47.4984 0 6.94761
5.30513 0 -3.23922
26.3552 0 -9.80093
-3.21451 0 -4.38716
-32.6902 0 31.1545
24.3421 0 -32.8507
-55.9022 0 -18.8268
11.5502 0 -38.4289
-20.4114 0 -2.23616
-31.5846 0 -16.7616
1.54633 0 -3.56122
-0.221441 0 41.742
-16.3031 0 13.8053
42.5369 0 5.57822
30.6707 0 52.7913
41.2265 0 -31.3188
2.72675 0 16.5267
-4.2532 0 51.1684
4.25331 0 51.1693
-2.72673 0 16.5268
-41.2253 0 -31.3181
-30.6721 0 52.7921
-42.5351 0 5.57775
16.3026 0 13.8049
0.221373 0 41.7422
-1.54632 0 -3.56124
31.5845 0 -16.7614
20.4112 0 -2.23617
-11.5504 0 -38.4286
55.9021 0 -18.8267
-24.3421 0 -32.8508
32.6903 0 31.1546
3.21449 0 -4.38717
-26.3552 0 -9.80092
-5.30514 0 -3.23922
-47.4984 0 6.94762
49.7879 0 -42.1958
-44.5444 0 -47.5236
-124.755 0 42.2893
20.383 0 -62.1776
32.3544 0 -89.8683
1.67613 0 -10.3465
-9.1031 0 -17.4699
9.54609 0 -10.4423
14.0332 0 -10.0886
-37.9217 0 1.21246
12.0105 0 -27.4987
-12.9913 0 -9.67533
-8.66391 0 -26.772
25.5953 0 23.5008
12.7961 0 22.8026
8.4481 0 16.5172
-16.2378 0 -29.6887
11.9663 0 6.48603
-58.0191 0 51.6567
14.147 0 -66.1861
-55.5454 0 7.13305
46.4327 0 54.4525
-15.8548 0 8.63207
22.9914 0 32.9255
-3.98936 0 7.54025
-78.4269 0 7.87913
7.52674 0 31.1063
7.91274 0 2.92335
-59.9378 0 92.674
85.8304 0 -60.1326
19.0378 0 36.8764
22.115 0 42.5552
-4.89182 0 -17.3152
17.655 0 36.0467
7.12204 0 -1.54826
0.574417 0 -44.2133
-17.3695 0 -3.48156
32.2598 0 -9.74936
-39.3758 0 55.1543
-13.9042 0 11.3311
1.29595 0 -21.924
-1.47482 0 0.84169
1.47486 0 0.841694
-1.29685 0 -21.9248
13.9045 0 11.3311
39.3761 0 55.1547
-32.2603 0 -9.7503
17.3695 0 -3.48157
-0.574561 0 -44.2104
-7.12191 0 -1.54821
-17.655 0 36.0466
4.89199 0 -17.3151
-22.1149 0 42.555
-19.0378 0 36.8764
-85.8302 0 -60.1324
59.9376 0 92.6739
-7.91276 0 2.92339
-7.52674 0 31.1064
78.4272 0 7.87921
3.98939 0 7.54027
-22.9914 0 32.9255
15.8548 0 8.63207
-46.4327 0 54.4524
55.5454 0 7.13306
-14.147 0 -66.1861
58.0191 0 51.6568
-11.9663 0 6.48603
16.2378 0 -29.6887
-8.4481 0 16.5172
-12.7961 0 22.8026
-25.5953 0 23.5008
8.66391 0 -26.772
12.8181 0 23.1566
126.022 0 -85.5082
-4.44963 0 -45.1662
-28.6003 0 5.85731
10.011 0 10.7548
21.269 0 35.8116
-9.84935 0 -6.79703
-93.6383 0 67.589
37.5494 0 27.4771
-20.1617 0 -14.5936
48.7614 0 -22.8094
11.7338 0 -13.5781
-18.5115 0 6.17676
14.8334 0 -9.04672
-97.21 0 19.9734
69.8724 0 -25.5864
-20.6593 0 -22.5135
-22.0012 0 -27.7699
-1.52884 0 -3.31504
0.910459 0 -0.502171
-42.1746 0 -30.8066
12.0547 0 -6.48371
-5.69331 0 -1.68342
7.16258 0 -0.00113985
2.12508 0 26.1472
-3.8057 0 -31.3429
4.29127 0 -7.29239
2.04383 0 -68.2214
-29.1872 0 0.585391
-8.01683 0 -6.37483
8.01685 0 -6.37521
29.1873 0 0.585314
-2.04399 0 -68.2185
-4.29155 0 -7.29286
3.80624 0 -31.3417
-2.12522 0 26.1422
-7.16109 0 -0.00174243
5.69256 0 -1.68386
-12.0547 0 -6.48359
42.1747 0 -30.8066
-0.910569 0 -0.502132
1.5288 0 -3.31505
22.0013 0 -27.7699
20.6592 0 -22.5132
-69.8728 0 -25.5865
97.2101 0 19.9735
-14.8334 0 -9.04673
18.5115 0 6.17677
-11.7338 0 -13.5781
-48.7614 0 -22.8093
20.1617 0 -14.5935
-37.5494 0 27.477
93.6383 0 67.589
9.84935 0 -6.79704
-21.269 0 35.8115
-10.011 0 10.7548
28.6003 0 5.85732
4.44964 0 -45.1662
-126.022 0 -85.5082
-12.8181 0 23.1566
-108.348 0 89.9835
3.80166 0 9.23759
-47.8405 0 21.7047
55.1004 0 13.7633
-39.1317 0 -40.6406
33.915 0 18.057
-34.6251 0 -50.6126
42.5193 0 33.0193
-63.203 0 -15.9888
16.4676 0 27.2303
1.65411 0 14.1274
-55.2826 0 -65.0833
-6.6416 0 12.6999
2.07109 0 1.75233
-98.6119 0 -19.1151
65.876 0 -42.95
24.2872 0 -1.46707
23.7263 0 28.2032
-0.0514242 0 -6.54582
1.73429 0 4.38552
9.14885 0 -28.0792
-5.06128 0 11.3296
-19.0589 0 -19.1382
13.1491 0 34.7249
-9.6553 0 45.6575
-15.2198 0 5.13242
17.0513 0 43.8463
-63.5992 0 -31.8471
-47.8459 0 4.88268
97.7032 0 22.6533
-97.7035 0 22.6528
47.8468 0 4.88306
63.5981 0 -31.8472
-17.0517 0 43.8444
15.2204 0 5.13279
9.6554 0 45.657
-13.1497 0 34.7274
19.0587 0 -19.1364
5.06183 0 11.3289
-9.14908 0 -28.0793
-1.73422 0 4.3856
0.0513806 0 -6.54581
-23.7263 0 28.2033
-24.287 0 -1.46724
-65.876 0 -42.9501
98.6115 0 -19.115
-2.07114 0 1.75235
6.64164 0 12.6999
55.2827 0 -65.0833
-1.65412 0 14.1273
-16.4676 0 27.2303
63.203 0 -15.9888
-42.5193 0 33.0193
34.6251 0 -50.6126
-33.915 0 18.057
39.1317 0 -40.6407
-55.1004 0 13.7633
47.8405 0 21.7047
-3.80165 0 9.23759
108.348 0 89.9835
0.567294 0 -4.81913
17.2356 0 2.49139
0.229217 0 0.624196
-19.2385 0 -51.2614
11.0426 0 -3.79793
-26.7355 0 -10.8248
-19.319 0 -9.01944
-4.76347 0 -16.9812
40.2889 0 -46.9743
5.32175 0 11.8022
47.3452 0 -18.8126
29.9658 0 -34.2942
-8.71258 0 -16.0763
32.9915 0 31.9671
2.60414 0 -61.6612
43.5725 0 -59.3294
-10.4744 0 -54.1707
-13.2464 0 2.80157
-2.47802 0 -9.91132
-3.16487 0 2.70003
-8.39765 0 2.25871
-10.6348 0 -28.7842
-6.10599 0 2.56152
13.8924 0 8.71641
2.15586 0 -14.396
-22.8577 0 -48.7614
18.5823 0 23.6436
-11.0429 0 8.05525
27.5456 0 34.1275
-12.1563 0 -4.53807
12.1564 0 -4.53879
-27.5483 0 34.1288
11.0452 0 8.05335
-18.5835 0 23.6464
22.8577 0 -48.7615
-2.15675 0 -14.3963
-13.8911 0 8.7158
6.10525 0 2.5619
10.6347 0 -28.784
8.39772 0 2.25853
3.16489 0 2.69993
2.47801 0 -9.91135
13.2464 0 2.80154
10.4743 0 -54.1707
-43.5725 0 -59.3295
-2.60406 0 -61.6613
-32.9917 0 31.9673
8.71259 0 -16.0763
-29.9658 0 -34.2942
-47.3452 0 -18.8126
-5.32179 0 11.8022
-40.2889 0 -46.9743
4.76346 0 -16.9812
19.3191 0 -9.01945
26.7355 0 -10.8248
-11.0426 0 -3.79793
19.2385 0 -51.2614
-0.229218 0 0.624197
-17.2356 0 2.49139
-0.567298 0 -4.81912
4.96792 0 -43.7019
-23.6801 0 -3.91698
2.80081 0 -16.9542
8.31333 0 43.2345
-0.448758 0 -3.03112
5.22203 0 23.0491
-6.90814 0 -28.2217
-20.0735 0 35.1405
-16.2662 0 -7.51368
1.32531 0 27.7367
-53.9893 0 -45.1647
-87.954 0 27.077
88.9385 0 -4.61002
-22.07 0 46.4348
8.46142 0 75.0257
-7.69923 0 1.37235
98.0121 0 37.2023
13.9878 0 50.7481
-70.6442 0 -2.28024
3.39451 0 5.48802
-7.6533 0 9.2792
37.5049 0 64.2621
40.4262 0 -11.7909
-24.167 0 -40.6589
50.9095 0 -25.258
-39.9527 0 -3.93916
34.2477 0 2.73334
2.2113 0 6.12986
-19.7466 0 11.8928
1.50432 0 -19.5928
-1.52216 0 -19.608
19.7647 0 11.9085
-2.20984 0 6.13064
-34.2472 0 2.73203
39.9522 0 -3.94018
-50.9084 0 -25.2528
24.1682 0 -40.6615
-40.4261 0 -11.7914
-37.5048 0 64.2621
7.65208 0 9.27918
-3.39453 0 5.48808
70.6457 0 -2.28042
-13.9878 0 50.7481
-98.0117 0 37.2022
7.69924 0 1.37236
-8.46146 0 75.0258
22.07 0 46.4349
-88.9384 0 -4.60999
87.9539 0 27.077
53.9892 0 -45.1648
-1.3253 0 27.7367
16.2661 0 -7.51367
20.0735 0 35.1405
6.90816 0 -28.2217
-5.22203 0 23.0491
0.448761 0 -3.03112
-8.31333 0 43.2346
-2.80081 0 -16.9542
23.6801 0 -3.91699
-4.96792 0 -43.7019
27.491 0 37.8743
7.03114 0 -10.1279
-9.75332 0 6.45339
3.25278 0 22.803
-99.8918 0 13.9105
88.1817 0 -19.3396
-0.864758 0 82.8751
12.5697 0 -15.7901
-20.2558 0 -20.6735
6.33336 0 9.12473
-6.94496 0 5.39022
-10.04 0 70.8522
48.6124 0 9.10531
16.452 0 -12.2028
-18.587 0 10.829
-72.3717 0 -96.1296
25.8153 0 -30.0363
11.226 0 1.0077
-16.3983 0 -36.9498
3.07817 0 -37.8849
57.292 0 -44.073
-23.6248 0 0.790883
-2.35206 0 39.8243
0.406635 0 5.29221
-33.166 0 64.7062
-18.3485 0 -27.4044
-1.68317 0 25.1486
3.9627 0 -3.30621
-16.096 0 -47.7
-48.166 0 2.69498
48.1671 0 2.69591
16.0894 0 -47.6967
-3.96192 0 -3.30596
1.67915 0 25.1502
18.3496 0 -27.4056
33.1648 0 64.7021
-0.406961 0 5.29215
2.35345 0 39.8242
23.6243 0 0.790756
-57.2935 0 -44.0734
-3.07822 0 -37.8854
16.3982 0 -36.9495
-11.2261 0 1.00769
-25.8153 0 -30.0364
72.3718 0 -96.1297
18.5868 0 10.829
-16.452 0 -12.2028
-48.6125 0 9.10532
10.04 0 70.8522
6.94494 0 5.39022
-6.33336 0 9.12471
20.2558 0 -20.6735
-12.5697 0 -15.7901
0.864767 0 82.8751
-88.1817 0 -19.3396
99.8918 0 13.9105
-3.25278 0 22.803
9.75333 0 6.45336
-7.03114 0 -10.1279
-27.491 0 37.8743
9.34307 0 6.91025
-5.56077 0 4.90471
29.281 0 -67.6346
23.9294 0 -10.1703
19.3958 0 -5.6258
-15.3543 0 -14.7897
69.7201 0 -15.0035
-0.186765 0 11.5779
19.8987 0 -1.85408
-33.8893 0 1.43899
54.7792 0 -35.8432
5.52457 0 -9.49366
-90.2665 0 43.8992
81.7325 0 -12.1159
-70.5058 0 -52.8642
-76.825 0 -134.468
10.3872 0 66.3136
48.8311 0 57.0531
-3.29364 0 -8.27181
-29.6684 0 -25.4992
6.60408 0 -17.9806
-3.01334 0 5.35001
-64.9142 0 -129.53
-26.7238 0 -50.6961
26.7381 0 4.30819
43.8322 0 -12.6979
53.3823 0 -53.1921
26.872 0 6.45173
-23.5012 0 26.7243
21.3539 0 8.12752
-21.3524 0 8.11801
23.5059 0 26.7276
-26.8689 0 6.44979
-53.3826 0 -53.188
-43.8314 0 -12.6959
-26.7409 0 4.30818
26.7267 0 -50.697
64.9121 0 -129.527
3.01333 0 5.35037
-6.60432 0 -17.9807
29.6684 0 -25.4991
3.29379 0 -8.27198
-48.8311 0 57.0532
-10.3872 0 66.3137
76.8252 0 -134.468
70.5058 0 -52.8645
-81.7326 0 -12.1159
90.2666 0 43.8992
-5.52455 0 -9.49367
-54.7792 0 -35.8432
33.8893 0 1.43899
-19.8987 0 -1.85408
0.18677 0 11.5779
-69.7201 0 -15.0035
15.3543 0 -14.7897
-19.3958 0 -5.62581
-23.9294 0 -10.1703
-29.2809 0 -67.6345
5.56075 0 4.90469
-9.34307 0 6.91025
3.26154 0 16.3748
-17.0877 0 3.91047
-13.3446 0 82.193
-21.4051 0 10.0814
-77.735 0 1.49385
12.0223 0 9.31445
-58.8745 0 -47.5837
-64.8715 0 0.0382118
-10.0083 0 -9.45287
19.848 0 -14.5991
-17.4336 0 -67.4286
7.36411 0 -34.5112
4.88371 0 8.93153
-8.65338 0 -35.4409
16.5757 0 7.89856
33.0744 0 57.3623
82.506 0 110.834
-30.8297 0 -77.4586
6.53818 0 10.5135
1.8024 0 81.4519
65.57 0 66.6505
-15.5363 0 -7.66364
41.2767 0 40.9078
79.7686 0 112.648
16.2232 0 52.7743
-8.05464 0 -11.8325
-125.735 0 30.845
81.423 0 -112.077
4.48217 0 -3.91447
-4.13406 0 8.65877
4.13332 0 8.66033
-4.48191 0 -3.91523
-81.4204 0 -112.078
125.73 0 30.844
8.05399 0 -11.8323
-16.2228 0 52.7756
-79.7659 0 112.645
-41.2762 0 40.908
15.5358 0 -7.66415
-65.57 0 66.6505
-1.80175 0 81.4523
-6.53836 0 10.5137
30.8288 0 -77.4581
-82.5062 0 110.834
-33.0744 0 57.3623
-16.5757 0 7.89856
8.65339 0 -35.441
-4.88371 0 8.93152
-7.36407 0 -34.5112
17.4336 0 -67.4286
-19.848 0 -14.5991
10.0083 0 -9.45287
64.8715 0 0.0382103
58.8746 0 -47.5837
-12.0224 0 9.31446
77.7349 0 1.49385
21.4051 0 10.0814
13.3446 0 82.1929
17.0877 0 3.91047
-3.26153 0 16.3748
18.6354 0 -2.6578
-25.8125 0 -46.4505
17.3348 0 -19.2294
-24.6681 0 -39.026
8.11592 0 -52.0501
23.9831 0 4.58301
-14.3097 0 -8.09327
63.1722 0 91.185
-0.162318 0 -0.915161
-25.5033 0 -67.3909
-23.8254 0 55.1182
12.2856 0 75.154
-40.9098 0 -56.9325
-27.6006 0 4.26161
-54.6951 0 -71.5744
6.67145 0 -7.66144
-50.6364 0 8.34344
-62.0895 0 78.6763
107.456 0 0.0338811
5.08592 0 -45.7766
18.2819 0 -17.3927
-7.22618 0 21.345
-7.90761 0 2.22326
4.12796 0 3.0282
-27.6777 0 37.9913
3.44323 0 -0.890601
-53.6595 0 90.6099
24.8369 0 53.3487
8.57001 0 -4.341
58.1928 0 -13.2439
-58.1871 0 -13.2438
-8.56927 0 -4.33843
-24.836 0 53.3472
53.6596 0 90.6096
-3.44505 0 -0.891814
27.6797 0 37.99
-4.12833 0 3.02686
7.9074 0 2.22327
7.22643 0 21.3455
-18.282 0 -17.3934
-5.08607 0 -45.7776
-107.455 0 0.0332868
62.0897 0 78.6765
50.6353 0 8.34394
-6.67122 0 -7.66136
54.695 0 -71.5744
27.6007 0 4.2616
40.9098 0 -56.9325
-12.2856 0 75.154
23.8254 0 55.1182
25.5033 0 -67.3909
0.162316 0 -0.915163
-63.1722 0 91.185
14.3097 0 -8.09325
-23.9831 0 4.58302
-8.11594 0 -52.0502
24.6681 0 -39.026
-17.3348 0 -19.2294
25.8125 0 -46.4505
-18.6354 0 -2.6578
20.5673 0 5.76309
-34.0917 0 7.61212
9.05894 0 -2.14917
47.6819 0 61.5114
-2.3462 0 65.6847
-17.1879 0 -42.4761
-19.2268 0 -4.3493
31.3427 0 -88.8814
-89.1746 0 22.4158
123.212 0 44.6766
5.86677 0 19.7061
-118.257 0 -101.302
106.706 0 21.5107
85.0112 0 19.8076
29.3511 0 60.3547
2.32428 0 -3.71728
-125.329 0 -69.7848
53.4315 0 12.2062
-20.0909 0 -18.7365
-44.9263 0 20.8665
-36.5278 0 20.3052
-1.96933 0 32.2235
20.4585 0 -33.6501
5.85901 0 -8.79868
-23.2172 0 -4.2357
-37.6712 0 -46.9216
38.3887 0 5.10941
-18.5278 0 -54.6942
-96.2299 0 15.6335
18.0033 0 17.8731
-18.0036 0 17.8731
96.2237 0 15.63
18.5247 0 -54.6861
-38.3917 0 5.11174
37.6774 0 -46.9233
23.2146 0 -4.23562
-5.85909 0 -8.79909
-20.46 0 -33.651
1.97002 0 32.2247
36.5282 0 20.3057
44.9265 0 20.8675
20.091 0 -18.7368
-53.4308 0 12.2059
125.329 0 -69.7847
-2.32424 0 -3.71726
-29.3511 0 60.3547
-85.0113 0 19.8077
-106.706 0 21.5108
118.257 0 -101.302
-5.86674 0 19.7061
-123.212 0 44.6766
89.1746 0 22.4158
-31.3427 0 -88.8813
19.2268 0 -4.34934
17.1879 0 -42.4761
2.34623 0 65.6848
-47.6819 0 61.5114
-9.05894 0 -2.14917
34.0917 0 7.61212
-20.5673 0 5.76309
24.2824 0 -16.4046
-7.76877 0 -3.00909
-10.7612 0 10.6041
5.97066 0 -17.2085
-11.9997 0 -46.9532
-10.8058 0 -6.58962
42.162 0 53.5629
-36.039 0 36.9921
32.3955 0 1.87094
-13.0044 0 -2.88036
13.853 0 3.79591
-108.828 0 16.6212
106.36 0 128.033
3.94319 0 9.01057
17.5611 0 -43.3035
2.49785 0 -3.66648
-0.229371 0 19.3274
-8.9801 0 1.48194
37.6245 0 -21.6336
-129.026 0 -76.7452
-5.75801 0 -11.0411
-9.622 0 -8.37828
-60.275 0 43.6231
-34.7661 0 -1.96014
42.1853 0 5.63904
-9.11543 0 26.8409
5.8977 0 -43.9579
1.8126 0 13.3704
-11.3171 0 -45.1782
0.0894088 0 -9.75867
-0.0894101 0 -9.75753
11.3174 0 -45.1881
-1.81273 0 13.3726
-5.90107 0 -43.9526
9.11361 0 26.8411
-42.1839 0 5.63898
34.7644 0 -1.95885
60.2724 0 43.6229
9.62179 0 -8.37765
5.75824 0 -11.0407
129.026 0 -76.7452
-37.6243 0 -21.6339
8.98017 0 1.48195
0.229405 0 19.3273
-2.49786 0 -3.66653
-17.561 0 -43.3033
-3.94319 0 9.01054