# vtk DataFile Version 3.0
SiWiRVisFile
ASCII
DATASET UNSTRUCTURED_GRID
POINTS 1600 DOUBLE
77.0705 100 74.1682
78.1921 100 74.45
79.2377 100 74.9347
81.1133 100 74.7437
82.1998 100 75.1869
83.3152 100 75.3007
84.7872 100 75.4581
85.8044 100 75.6549
86.8903 100 75.7107
86.2627 100 74.6787
90.1036 100 75.7686
91.1049 100 74.9124
90.2256 100 74.3997
90.3132 100 73.3191
89.8647 100 72.1892
92.6017 100 67.9977
93.7036 100 68.1187
95.6692 100 67.3395
94.4186 100 65.0129
97.782 100 66.3735
104.073 100 54.9811
103.632 100 57.2487
104.548 100 56.6427
106.075 100 55.7347
104.968 100 55.6049
107.382 100 55.501
109.396 100 52.67
110.145 100 51.691
110.602 100 52.721
111.566 100 52.2697
112.927 100 52.2695
113.891 100 52.7211
114.348 100 51.691
115.096 100 52.6699
117.111 100 55.501
119.525 100 55.6049
118.418 100 55.7347
119.944 100 56.6427
120.86 100 57.2487
120.42 100 54.9811
126.71 100 66.3734
130.074 100 65.0129
128.823 100 67.3394
130.789 100 68.1187
131.891 100 67.9977
134.628 100 72.1892
134.179 100 73.319
134.267 100 74.3995
133.387 100 74.9125
134.389 100 75.7685
138.23 100 74.6787
137.602 100 75.7107
138.688 100 75.6549
139.705 100 75.4581
141.177 100 75.3007
142.293 100 75.1869
143.379 100 74.7437
145.255 100 74.9347
146.3 100 74.45
147.422 100 74.1682
77.3978 100 75.1989
78.3665 100 75.648
80.2927 100 75.5714
81.3735 100 76.026
82.4508 100 76.2798
84.0539 100 76.195
85.1029 100 76.5415
86.2967 100 76.6584
87.3392 100 77.0177
88.2778 100 77.4574
89.348 100 76.8621
91.8872 100 75.7532
91.4166 100 73.7853
91.8756 100 72.8231
92.4754 100 71.7784
90.9385 100 72.0914
94.9639 100 68.3671
96.8388 100 67.0726
97.9136 100 68.1834
100.027 100 66.9761
103.425 100 56.2015
99.7206 100 61.3726
104.398 100 62.3444
109.863 100 56.0198
106.344 100 54.6465
107.703 100 56.5504
108.682 100 55.8537
109.416 100 54.8637
109.861 100 53.9019
111.331 100 53.7036
113.161 100 53.7041
114.632 100 53.9017
115.076 100 54.8637
115.811 100 55.8536
116.789 100 56.5503
118.148 100 54.6465
114.63 100 56.0197
120.094 100 62.3449
124.772 100 61.3726
121.067 100 56.2015
124.466 100 66.9759
126.579 100 68.1836
127.654 100 67.0726
129.529 100 68.3674
133.554 100 72.0914
132.017 100 71.7784
132.617 100 72.8231
133.076 100 73.7854
132.605 100 75.7532
135.144 100 76.8621
136.215 100 77.4574
137.153 100 77.0177
138.196 100 76.6584
139.389 100 76.5415
140.438 100 76.195
142.042 100 76.2798
143.119 100 76.026
144.2 100 75.5714
146.126 100 75.648
147.095 100 75.1989
77.3396 100 76.3221
78.3636 100 76.8912
79.3706 100 76.1944
80.421 100 76.6693
81.3645 100 77.1025
83.2889 100 77.0729
84.3931 100 77.3582
85.3718 100 77.5872
86.4129 100 77.7898
87.4693 100 78.1565
89.0402 100 78.1827
90.1651 100 78.6582
91.3555 100 77.9028
92.5023 100 74.6918
93.7642 100 72.0047
94.3296 100 71.0564
94.8497 100 69.6308
95.7682 100 69.0906
96.7641 100 68.1379
98.6436 100 67.4831
100.911 100 66.1947
103.507 100 63.2708
105.489 100 62.9965
106.662 100 62.5716
106.378 100 59.5064
107.228 100 61.6399
107.817 100 60.6471
106.2 100 61.2583
110.522 100 54.9778
111.62 100 54.8916
112.873 100 54.8921
113.97 100 54.9775
118.292 100 61.2534
116.675 100 60.6483
117.264 100 61.6395
118.115 100 59.5062
117.832 100 62.5695
119.003 100 62.9984
120.985 100 63.2715
123.581 100 66.1947
125.85 100 67.4821
127.728 100 68.1377
128.724 100 69.0911
129.643 100 69.6307
130.163 100 71.0568
130.728 100 72.0051
131.99 100 74.6918
133.137 100 77.9027
134.327 100 78.6582
135.452 100 78.1827
137.023 100 78.1565
138.08 100 77.7898
139.121 100 77.5872
140.099 100 77.3582
141.204 100 77.0729
143.128 100 77.1025
144.071 100 76.6693
145.122 100 76.1944
146.129 100 76.8912
147.153 100 76.3221
77.4609 100 77.5685
78.5886 100 77.9613
79.477 100 77.3102
80.4125 100 77.7749
82.3576 100 77.7373
83.5974 100 78.1806
84.6791 100 78.3507
85.6783 100 78.8149
86.7888 100 78.9869
88.1112 100 79.0536
89.2737 100 79.3011
90.3403 100 79.7786
91.3114 100 78.9995
93.3345 100 73.9799
93.0558 100 72.816
95.3982 100 72.756
95.5553 100 71.7015
95.4237 100 70.6043
96.5494 100 69.7954
97.4757 100 69.3479
98.8316 100 68.8156
101.11 100 67.6075
104.568 100 63.7084
105.163 100 65.3986
105.477 100 64.222
106.444 100 63.7391
108.946 100 63.8128
109.932 100 63.3656
109.004 100 61.5336
111.117 100 56.2945
113.376 100 56.2942
115.487 100 61.5311
114.559 100 63.3654
115.546 100 63.812
118.046 100 63.7413
119.015 100 64.222
119.328 100 65.3994
119.925 100 63.7078
123.384 100 67.6073
125.66 100 68.8153
127.017 100 69.3479
127.943 100 69.7955
129.069 100 70.6041
128.937 100 71.7014
129.095 100 72.7554
131.437 100 72.8159
131.158 100 73.9799
133.181 100 78.9995
134.152 100 79.7785
135.219 100 79.3011
136.381 100 79.0537
137.704 100 78.9869
138.814 100 78.8149
139.813 100 78.3507
140.895 100 78.1806
142.135 100 77.7373
144.08 100 77.7749
145.015 100 77.3102
145.904 100 77.9613
147.032 100 77.5685
77.6734 100 78.6246
78.5835 100 79.2152
79.593 100 78.4273
81.4492 100 78.2803
82.5784 100 78.8608
83.5505 100 79.3508
84.7583 100 79.4948
86.1678 100 79.9132
87.2584 100 79.9887
88.4774 100 80.1446
89.2598 100 81.0507
91.3923 100 80.1617
92.3188 100 78.4919
94.1648 100 74.7062
94.2196 100 73.1511
96.1964 100 73.4392
96.5087 100 72.2655
96.4188 100 71.101
97.407 100 70.5093
98.5074 100 70.1953
99.895 100 68.3604
102.683 100 68.3411
106.362 100 64.9467
107.331 100 64.4903
107.943 100 63.5694
108.29 100 64.8498
109.589 100 64.8123
110.69 100 65.2135
108.374 100 62.6461
111.605 100 57.4891
112.888 100 57.4891
116.117 100 62.6463
113.803 100 65.2143
114.902 100 64.8112
116.205 100 64.8481
116.549 100 63.5707
117.165 100 64.4917
118.135 100 64.9494
121.81 100 68.3415
124.597 100 68.3602
125.983 100 70.1953
127.085 100 70.5093
128.074 100 71.101
127.984 100 72.2653
128.297 100 73.439
130.273 100 73.1508
130.328 100 74.7059
132.173 100 78.4918
133.1 100 80.1616
135.233 100 81.0505
136.015 100 80.1446
137.234 100 79.9887
138.325 100 79.9132
139.734 100 79.4948
140.942 100 79.3508
141.914 100 78.8608
143.043 100 78.2803
144.899 100 78.4273
145.909 100 79.2152
146.819 100 78.6246
77.6261 100 79.7092
78.3796 100 80.4265
79.6411 100 79.595
80.6301 100 78.9114
81.5997 100 79.3941
82.5982 100 80.0104
83.8121 100 80.354
84.9603 100 80.5911
85.9823 100 80.9839
87.063 100 81.0741
88.1782 100 81.3503
90.3761 100 80.7801
92.268 100 80.7526
93.3847 100 77.9253
93.8732 100 77.0238
95.0628 100 74.1119
97.3392 100 73.8289
97.6853 100 72.54
98.0158 100 71.4821
99.575 100 71.0095
99.5381 100 69.6057
101.563 100 68.6663
103.899 100 68.2125
105.671 100 67.8794
105.724 100 66.644
107.387 100 65.7085
108.578 100 65.9186
109.798 100 65.9176
111.723 100 65.6357
111.334 100 64.2606
113.162 100 64.2589
112.769 100 65.6347
114.693 100 65.9196
115.913 100 65.9154
117.104 100 65.7088
118.766 100 66.645
118.821 100 67.8763
120.594 100 68.2131
122.93 100 68.6659
124.955 100 69.6051
124.918 100 71.0097
126.477 100 71.4822
126.807 100 72.5404
127.155 100 73.8257
129.431 100 74.1118
130.619 100 77.0239
131.107 100 77.9258
132.224 100 80.7532
134.116 100 80.7798
136.314 100 81.3502
137.429 100 81.0742
138.51 100 80.9839
139.532 100 80.5911
140.68 100 80.354
141.894 100 80.0104
142.893 100 79.3941
143.862 100 78.9114
144.851 100 79.595
146.113 100 80.4265
146.866 100 79.7092
77.2604 100 80.8629
78.1974 100 81.5053
79.4493 100 80.7162
80.651 100 80.296
81.6075 100 80.8797
82.9039 100 81.0367
84.0329 100 81.4127
84.9898 100 81.6925
86.4732 100 82.1139
87.5621 100 82.2776
88.8713 100 82.1818
91.3441 100 81.2875
92.3237 100 81.8744
94.1435 100 78.8971
95.7098 100 76.9893
96.7824 100 74.8175
97.6478 100 75.3713
98.3257 100 73.4171
98.988 100 71.8963
100.421 100 70.2404
100.594 100 69.1338
102.512 100 69.5818
105.026 100 69.0111
106.523 100 67.2538
107.925 100 66.9659
109.085 100 67.3796
109.918 100 68.0867
110.827 100 66.2735
109.275 100 69.4288
110.568 100 69.4609
113.923 100 69.4466
115.222 100 69.441
113.664 100 66.274
114.568 100 68.0891
115.408 100 67.3843
116.568 100 66.966
117.966 100 67.2548
119.465 100 69.0109
121.98 100 69.5822
123.899 100 69.1334
124.071 100 70.2403
125.505 100 71.8962
126.167 100 73.4181
126.843 100 75.3731
127.707 100 74.8172
128.783 100 76.989
130.349 100 78.8974
132.169 100 81.8747
133.148 100 81.2873
135.621 100 82.1816
136.93 100 82.2775
138.019 100 82.1139
139.503 100 81.6925
140.459 100 81.4127
141.588 100 81.0367
142.885 100 80.8797
143.841 100 80.296
145.043 100 80.7161
146.295 100 81.5054
147.232 100 80.8629
77.219 100 81.98
78.008 100 82.7027
79.2435 100 81.8568
80.1389 100 82.5892
80.4957 100 81.3081
81.3591 100 82.1867
83.2864 100 82.1824
84.4807 100 82.6512
85.6297 100 82.7694
86.7882 100 83.1308
88.0439 100 83.541
89.3496 100 83.2601
90.0513 100 82.2877
90.5922 100 83.2274
91.5818 100 83.948
93.3527 100 81.3941
96.8652 100 76.3166
98.3163 100 74.5797
99.6146 100 73.3454
100.14 100 72.1057
100.827 100 71.2597
101.541 100 69.9927
103.643 100 69.2406
106.445 100 68.5681
107.493 100 68.2882
108.561 100 68.3072
108.169 100 69.4023
108.342 100 70.536
109.963 100 70.4559
110.986 100 70.4191
113.514 100 70.4111
114.538 100 70.4591
116.127 100 70.5151
116.321 100 69.4028
115.936 100 68.3086
117.003 100 68.2937
118.05 100 68.5714
120.85 100 69.2411
122.951 100 69.9917
123.665 100 71.2598
124.352 100 72.1059
124.878 100 73.3445
126.177 100 74.5802
127.628 100 76.317
131.141 100 81.3939
132.911 100 83.9481
133.9 100 83.2274
134.441 100 82.2878
135.143 100 83.26
136.448 100 83.541
137.704 100 83.1309
138.863 100 82.7693
140.012 100 82.651
141.206 100 82.1824
143.133 100 82.1867
143.997 100 81.3081
144.353 100 82.5892
145.249 100 81.8567
146.484 100 82.7027
147.273 100 81.98
76.949 100 83.1429
77.9525 100 83.7971
79.1138 100 82.9401
79.8706 100 83.7692
80.8969 100 83.3053
81.8652 100 83.607
82.952 100 83.2738
83.966 100 83.6495
85.0345 100 83.6939
85.7733 100 84.5422
87.2561 100 84.3837
88.2648 100 84.635
89.3741 100 84.4913
90.6211 100 84.4146
92.7134 100 83.9041
93.2287 100 80.1588
97.0313 100 77.4652
97.9336 100 76.5877
99.3893 100 74.7105
100.441 100 74.5616
[...]
POINT_DATA 1600
SCALARS mass double
LOOKUP_TABLE default
1
1
1
1
1
1
1
1
1
1
1
1
1
1
1
1
1
1
1
1
1
1
1
1
1
1
1
1
1
1
1
1
1
1
1
1
1
1
1
1
1
1
1
1
1
1
1
1
1
1
1
1
1
1
1
1
1
1
1
1
1
1
1
1
1
1
1
1
1
1
1
1
1
1
1
1
1
1
1
1
1
1
1
1
1
1
1
1
1
1
1
1
1
1
1
1
1
1
1
1
1
1
1
1
1
1
1
1
1
1
1
1
1
1
1
1
1
1
1
1
1
1
1
1
1
1
1
1
1
1
1
1
1
1
1
1
1
1
1
1
1
1
1
1
1
1
1
1
1
1
1
1
1
1
1
1
1
1
1
1
1
1
1
1
1
1
1
1
1
1
1
1
1
1
1
1
1
1
1
1
1
1
1
1
1
1
1
1
1
1
1
1
1
1
1
1
1
1
1
1
1
1
1
1
1
1
1
1
1
1
1
1
1
1
1
1
1
1
1
1
1
1
1
1
1
1
1
1
1
1
1
1
1
1
1
1
1
1
1
1
1
1
1
1
1
1
1
1
1
1
1
1
1
1
1
1
1
1
1
1
1
1
1
1
1
1
1
1
1
1
1
1
1
1
1
1
1
1
1
1
1
1
1
1
1
1
1
1
1
1
1
1
1
1
1
1
1
1
1
1
1
1
1
1
1
1
1
1
1
1
1
1
1
1
1
1
1
1
1
1
1
1
1
1
1
1
1
1
1
1
1
1
1
1
1
1
1
1
1
1
1
1
1
1
1
1
1
1
1
1
1
1
1
1
1
1
1
1
1
1
1
1
1
1
1
1
1
1
1
1
1
1
1
1
1
1
1
1
1
1
1
1
1
1
1
1
1
1
1
1
1
1
1
1
1
1
1
1
1
1
1
1
1
1
1
1
1
1
1
1
1
1
1
1
1
1
1
1
1
1
1
1
1
1
1
1
1
1
1
1
1
1
1
1
1
1
1
1
1
1
1
1
1
1
1
1
1
1
1
1
1
1
1
1
1
1
1
1
1
1
1
1
1
1
1
1
1
1
1
1
1
1
1
1
1
1
1
1
1
1
1
1
1
1
1
1
1
1
1
1
1
1
1
1
1
1
1
1
1
1
1
1
1
1
1
1
1
1
1
1
1
1
1
1
1
1
1
1
1
1
1
1
1
1
1
1
1
1
1
1
1
1
1
1
1
1
1
1
1
1
1
1
1
1
1
1
1
1
1
1
1
1
1
1
1
1
1
1
1
1
1
1
1
1
1
1
1
1
1
1
1
1
1
1
1
1
1
1
1
1
1
1
1
1
1
1
1
1
1
1
1
1
1
1
1
1
1
1
1
1
1
1
1
1
1
1
1
1
1
1
1
1
1
1
1
1
1
1
1
1
1
1
1
1
1
1
1
1
1
1
1
1
1
1
1
1
1
1
1
1
1
1
1
1
1
1
1
1
1
1
1
1
1
1
1
1
1
1
1
1
1
1
1
1
1
1
1
1
1
1
1
1
1
1
1
1
1
1
1
1
1
1
1
1
1
1
1
1
1
1
1
1
1
1
1
1
1
1
1
1
1
1
1
1
1
1
1
1
1
1
1
1
1
1
1
1
1
1
1
1
1
1
1
1
1
1
1
1
1
1
1
1
1
1
1
1
1
1
1
1
1
1
1
1
1
1
1
1
1
1
1
1
1
1
1
1
1
1
1
1
1
1
1
1
1
1
1
1
1
1
1
1
1
1
1
1
1
1
1
1
1
1
1
1
1
1
1
1
1
1
1
1
1
1
1
1
1
1
1
1
1
1
1
1
1
1
1
1
1
1
1
1
1
1
1
1
1
1
1
1
1
1
1
1
1
1
1
1
1
1
1
1
1
1
1
1
1
1
1
1
1
1
1
1
1
1
1
1
1
1
1
1
1
1
1
1
1
1
1
1
1
1
1
1
1
1
1
1
1
1
1
1
1
1
1
1
1
1
1
1
1
1
1
1
1
1
1
1
1
1
1
1
1
1
1
1
1
1
1
1
1
1
1
1
1
1
1
1
1
1
1
1
1
1
1
1
1
1
1
1
1
1
1
1
1
1
1
1
1
1
1
1
1
1
1
1
1
1
1
1
1
1
1
1
1
1
1
1
1
1
1
1
1
1
1
1
1
1
1
1
1
1
1
1
1
1
1
1
1
1
1
1
1
1
1
1
1
1
1
1
1
1
1
1
1
1
1
1
1
1
1
1
1
1
1
1
1
1
1
1
1
1
1
1
1
1
1
1
1
1
1
1
1
1
1
1
1
1
1
1
1
1
1
1
1
1
1
1
1
1
1
1
1
1
1
1
1
1
1
1
1
1
1
1
1
1
1
1
1
1
1
1
1
1
1
1
1
1
1
1
1
1
1
1
1
1
1
1
1
1
1
1
1
1
1
1
1
1
1
1
1
1
1
1
1
1
1
1
1
1
1
1
1
1
1
1
1
1
1
1
1
1
1
1
1
1
1
1
1
1
1
1
1
1
1
1
1
1
1
1
1
1
1
1
1
1
1
1
1
1
1
1
1
1
1
1
1
1
1
1
1
1
1
1
1
1
1
1
1
1
1
1
1
1
1
1
1
1
1
1
1
1
1
1
1
1
1
1
1
1
1
1
1
1
1
1
1
1
1
1
1
1
1
1
1
1
1
1
1
1
1
1
1
1
1
1
1
1
1
1
1
1
1
1
1
1
1
1
1
1
1
1
1
1
1
1
1
1
1
1
1
1
1
1
1
1
1
1
1
1
1
1
1
1
1
1
1
1
1
1
1
1
1
1
1
1
1
1
1
1
1
1
1
1
1
1
1
1
1
1
1
1
1
1
1
1
1
1
1
1
1
1
1
1
1
1
1
1
1
1
1
1
1
1
1
1
1
1
1
1
1
1
1
1
1
1
1
1
1
1
1
1
1
1
1
1
1
1
1
1
1
1
1
1
1
1
1
1
1
1
1
1
1
1
1
1
1
1
1
1
1
1
1
1
1
1
1
1
1
1
1
1
1
1
1
1
1
1
1
1
1
1
1
1
1
1
1
1
1
1
1
1
1
1
1
1
1
1
1
1
1
1
1
1
1
1
1
1
1
1
1
1
1
1
1
1
1
1
1
1
1
1
1
1
1
1
1
1
1
1
1
1
1
1
1
1
1
1
1
1
1
1
1
1
1
1
1
1
1
1
1
1
1
1
1
1
1
1
1
1
1
1
1
1
1
1
1
1
1
1
1
1
1
1
1
1
1
1
1
1
1
1
1
1
1
1
1
1
1
1
1
1
1
1
1
1
1
1
1
1
1
1
1
1
1
1
1
1
1
1
1
1
1
1
1
1
1
1
1
1
1
1
1
1
1
1
1
1
1
1
1
1
1
1
1
1
1
1
1
1
1
1
1
1
1
1
1
1
1
1
1
1
1
1
1
1
1
1
1
1
1
1
1
1
1
1
1
1
1
1
1
1
1
1
1
1
1
1
1
1
1
1
1
1
1
1
1
1
1
1
1
1
1
1
1
1
1
1
1
1
1
1
1
1
1
1
1
1
1
1
1
1
1
1
1
1
1
1
1
1
1
1
1
1
1
1
1
1
1
1
VECTORS force double
2.69161 0 -13.4503
9.54457 0 5.86263
4.48682 0 17.3768
3.83866 0 22.2209
-16.4128 0 4.79198
3.59221 0 17.621
-21.2229 0 -46.6707
31.2521 0 30.8117
10.1226 0 -0.218631
11.179 0 -4.88549
5.13901 0 -7.62619
78.5199 0 41.9046
-65.0848 0 -22.9265
15.2559 0 -29.3403
-13.9664 0 13.4779
-4.26666 0 -0.456004
17.5416 0 3.68946
11.816 0 15.7174
0 0 0
-2.62268 0 14.6412
-12.6004 0 3.75969
-1.72054 0 30.3029
-2.43743 0 -11.562
11.9395 0 0.411259
7.04995 0 5.76603
-10.7887 0 -10.6785
23.2812 0 1.71165
-1.94392 0 13.2052
-35.6144 0 28.3168
30.2628 0 -6.80811
-30.1107 0 -6.75921
35.4718 0 28.2338
1.93204 0 13.2288
-23.2797 0 1.71712
10.8008 0 -10.7057
-7.05024 0 5.76527
-11.9401 0 0.410649
2.43784 0 -11.5601
1.71911 0 30.3098
12.6003 0 3.75937
2.6179 0 14.6844
0 0 0
-11.8069 0 15.7047
-17.541 0 3.69283
4.26453 0 -0.455982
13.972 0 13.4773
-15.2612 0 -29.3784
65.0571 0 -22.8909
-78.4954 0 41.9197
-5.14408 0 -7.63076
-11.1798 0 -4.88624
-10.1212 0 -0.22093
-31.2515 0 30.8104
21.2183 0 -46.6727
-3.59141 0 17.6204
16.4129 0 4.79065
-3.83904 0 22.221
-4.48685 0 17.3767
-9.54473 0 5.86282
-2.69137 0 -13.4505
-24.9294 0 15.3574
18.5245 0 20.9566
5.94339 0 -13.1854
-13.9341 0 -37.1154
12.232 0 10.3724
-52.37 0 49.17
24.6443 0 -28.2584
-25.85 0 11.0476
-56.6637 0 -16.4061
50.691 0 -21.0732
-7.0046 0 8.15852
-0.255016 0 -15.3686
-25.6845 0 36.7806
17.3124 0 -38.2079
7.10061 0 22.1984
28.631 0 14.2397
-16.0306 0 -11.5172
2.96054 0 -24.6912
-84.2778 0 72.444
10.3691 0 11.4942
12.5093 0 -31.1163
0 0 0
4.5958 0 23.663
3.22475 0 -20.9019
5.25169 0 7.96384
10.5835 0 0.849327
0.160834 0 -4.87394
-19.4227 0 50.0773
27.7095 0 -37.2162
-10.2498 0 0.699353
10.2598 0 0.721399
-27.7051 0 -37.2213
19.4082 0 50.08
-0.152427 0 -4.87038
-10.5956 0 0.870341
-5.25276 0 7.96589
-3.23003 0 -20.9056
-4.58083 0 23.6984
0 0 0
-12.508 0 -31.1237
-10.4253 0 11.4584
83.7083 0 72.2936
-2.98355 0 -24.9185
16.0207 0 -11.5032
-28.6319 0 14.241
-7.08704 0 22.187
-17.3079 0 -38.2024
25.6851 0 36.7672
0.261573 0 -15.3752
7.0063 0 8.16148
-50.6899 0 -21.0748
56.6572 0 -16.4052
25.8546 0 11.0488
-24.6347 0 -28.2532
52.3685 0 49.1734
-12.2328 0 10.3738
13.9347 0 -37.1165
-5.94288 0 -13.185
-18.5247 0 20.9568
24.9294 0 15.3574
21.0165 0 8.72769
9.32134 0 -28.38
-11.7058 0 -1.51143
-53.9143 0 -25.3095
58.1353 0 57.4802
2.72145 0 -1.58113
-143.964 0 -79.8291
132.06 0 -8.20116
33.4049 0 15.2164
-6.11604 0 -9.01345
29.7705 0 36.2437
13.2012 0 -7.12402
-5.02257 0 -3.54618
-24.609 0 10.7768
6.65571 0 0.849586
22.3744 0 -8.1026
-21.4066 0 9.0576
15.6415 0 -32.5098
-6.30522 0 36.8766
73.4829 0 -61.4974
-6.34872 0 14.2257
14.509 0 -6.08204
4.0422 0 13.2381
-17.7986 0 20.6338
1.17989 0 3.45051
24.5061 0 -8.90125
-2.04564 0 10.4838
-4.66967 0 3.63664
-11.3849 0 2.62142
14.3555 0 -7.08907
-14.3659 0 -7.07602
11.4022 0 2.60541
4.18065 0 3.46573
1.94257 0 10.3379
-24.0806 0 -9.19492
-1.16862 0 3.48266
18.025 0 21.2027
-4.1618 0 13.1283
-14.4013 0 -6.128
6.40826 0 14.2738
-73.033 0 -61.3646
6.35935 0 37.072
-15.9042 0 -32.7143
21.7858 0 9.21628
-22.4151 0 -8.13476
-6.64682 0 0.898755
24.543 0 10.7297
4.99362 0 -3.53258
-13.2056 0 -7.1471
-29.7699 0 36.2438
6.11578 0 -9.00742
-33.4032 0 15.2159
-132.059 0 -8.19659
143.954 0 -79.8244
-2.72026 0 -1.58167
-58.1358 0 57.4815
53.9149 0 -25.3097
11.7052 0 -1.51211
-9.32103 0 -28.3804
-21.0166 0 8.72773
8.57011 0 -28.5711
-17.6518 0 22.2978
-41.9659 0 -31.3571
90.5937 0 3.75502
35.4355 0 -21.9668
-26.2204 0 1.81346
-25.629 0 113.075
11.586 0 -4.63103
-9.16026 0 -0.795517
5.92824 0 10.1223
-14.7769 0 9.99117
-5.91334 0 -126.388
-18.4755 0 22.9387
8.4877 0 -31.1364
-15.2117 0 21.5452
-39.678 0 5.74052
-41.0753 0 -3.67092
-4.54923 0 -13.7411
-42.1374 0 67.9057
72.7277 0 -35.4033
-21.1503 0 -24.7297
-14.3981 0 1.28603
-38.9228 0 -37.7846
18.4033 0 -9.16784
28.3689 0 33.3466
18.6157 0 -8.89154
39.8148 0 32.5316
12.7684 0 0.249073
-12.5417 0 7.88963
-7.21933 0 -4.30596
7.21555 0 -4.32204
12.5288 0 7.84267
-12.664 0 0.374113
-40.2687 0 32.3485
-18.1714 0 -9.22261
-27.1949 0 32.6368
-18.5045 0 -9.24713
38.1084 0 -37.2338
14.4337 0 1.25092
21.7135 0 -25.2915
-72.6768 0 -35.4395
42.0977 0 67.9402
4.53621 0 -13.6856
41.127 0 -4.01295
39.7745 0 5.98409
15.2066 0 21.5579
-8.15252 0 -31.3575
18.4434 0 22.9208
5.87945 0 -126.81
14.7867 0 9.99365
-5.92688 0 10.114
9.15729 0 -0.790267
-11.59 0 -4.63052
25.6288 0 113.062
26.2241 0 1.81241
-35.4369 0 -21.9676
-90.5965 0 3.75735
41.9685 0 -31.358
17.6513 0 22.2979
-8.57 0 -28.5714
-3.79161 0 -5.3403
39.7364 0 -6.99904
-34.1798 0 46.5767
21.0875 0 -26.9991
-11.0398 0 -18.1979
6.76866 0 -54.5514
-11.6409 0 -3.69063
-23.7643 0 -16.3389
33.0498 0 -4.92913
-5.12127 0 7.60613
0.00438951 0 1.89852
-36.8624 0 -22.5789
8.17094 0 -2.86597
-14.7125 0 10.3059
-4.06076 0 1.80138
39.4763 0 27.5477
4.21309 0 11.5862
46.1193 0 -25.9951
3.86737 0 1.12699
3.47009 0 -2.23497
-38.0518 0 -37.2267
7.50315 0 21.4872
-26.122 0 7.40374
-54.1168 0 -26.6461
-99.1091 0 64.94
74.1725 0 9.22608
-9.34664 0 -6.29981
-13.7062 0 -33.172
40.862 0 -77.4039
7.45009 0 -11.1306
-7.45343 0 -11.1261
-39.9345 0 -75.1226
13.1195 0 -33.2984
9.2812 0 -5.53817
-75.1034 0 9.18972
98.8455 0 63.5611
55.6827 0 -26.452
24.4777 0 7.00286
-7.49452 0 21.5024
38.6856 0 -38.0927
-3.14267 0 -2.08612
-4.14154 0 1.06174
-46.2284 0 -26.0518
-4.25706 0 11.6301
-39.4739 0 27.5188
4.05135 0 1.82499
14.8319 0 10.8428
-8.11442 0 -2.85818
36.4875 0 -22.3456
0.0214632 0 1.90485
5.12295 0 7.61116
-33.0269 0 -4.87263
23.757 0 -16.3401
11.641 0 -3.6868
-6.77242 0 -54.5419
11.0424 0 -18.1984
-21.0873 0 -26.9989
34.1788 0 46.5771
-39.7353 0 -6.99863
3.79165 0 -5.34082
-57.3184 0 -0.818889
32.8193 0 16.1463
13.4138 0 -2.50205
-77.0248 0 34.1522
12.8656 0 24.6715
-5.58463 0 -28.5315
14.7853 0 31.939
-19.8858 0 -7.6026
-11.6823 0 33.1735
16.9775 0 22.7501
-14.7456 0 -29.9394
-4.23124 0 108.74
62.6125 0 10.6943
-38.4331 0 79.1711
35.7897 0 -62.6782
19.729 0 -34.0504
-23.6824 0 8.61092
-20.0519 0 -3.18486
-33.2445 0 -31.5407
25.4127 0 -29.2682
11.1149 0 16.1364
29.1574 0 1.5922
4.91409 0 -23.6553
-76.0311 0 -17.6281
-87.733 0 -63.12
11.7338 0 -15.1489
0.575134 0 11.84
-24.2037 0 -5.01685
-39.8392 0 -11.4745
-3.83993 0 12.7038
4.00363 0 12.7983
39.7912 0 -11.7791
24.4587 0 -5.65564
-0.585881 0 11.8913
-11.6683 0 -15.0741
87.6007 0 -63.0155
74.1866 0 -16.4379
-4.88782 0 -23.5922
-29.1828 0 1.59025
-11.935 0 16.9067
-25.5414 0 -29.4249
33.1768 0 -31.4618
20.0314 0 -3.04893
23.9684 0 8.58903
-20.0782 0 -34.321
-35.6876 0 -62.5806
38.3347 0 79.0664
-62.2974 0 10.3153
4.17689 0 109.197
14.7365 0 -29.9383
-16.9845 0 22.6898
11.6937 0 33.1638
19.8732 0 -7.608
-14.7872 0 31.9487
5.58528 0 -28.5342
-12.8666 0 24.6698
77.028 0 34.1527
-13.4145 0 -2.50238
-32.8189 0 16.1453
57.3171 0 -0.818252
18.3657 0 -13.8534
6.76791 0 9.95542
18.2205 0 8.32832
-1.63258 0 -93.2505
7.82322 0 1.94305
12.5615 0 32.4527
-99.1525 0 -37.2004
146.808 0 33.7414
1.22761 0 -66.9813
11.5293 0 6.18592
15.4257 0 16.014
-12.4293 0 20.3931
-1.18095 0 -4.51069
-10.2338 0 -4.37077
15.3149 0 -2.44256
-54.6511 0 -41.0629
29.3807 0 101.21
45.4164 0 8.78204
19.66 0 46.8764
9.28541 0 1.9587
17.1346 0 53.3804
-5.82657 0 -64.4062
-11.7481 0 -14.8812
126.955 0 57.9452
6.43132 0 0.531543
-7.17276 0 -42.3721
-1.20051 0 18.3161
8.48446 0 33.7585
15.6889 0 1.4412
-37.384 0 -40.5007
37.0132 0 -36.6538
-17.3168 0 2.68653
-8.2793 0 33.7794
1.96036 0 17.076
5.29082 0 -41.6431
-6.38266 0 0.384324
-127.065 0 57.8305
12.1131 0 -15.381
6.97378 0 -65.0081
-17.9046 0 54.2086
-8.89832 0 1.76761
-19.6217 0 46.9272
-45.6952 0 8.64561
-28.6433 0 101.837
54.1641 0 -41.0636
-15.3188 0 -2.43903
10.2379 0 -4.36209
1.19955 0 -4.38236
12.5369 0 20.404
-15.4321 0 16.0164
-11.4702 0 6.2036
-1.30514 0 -66.9584
-146.979 0 33.69
99.2874 0 -37.2339
-12.5641 0 32.4596
-7.82133 0 1.94149
1.63148 0 -93.2469
-18.2205 0 8.32856
-6.76638 0 9.95572
-18.3665 0 -13.852
-30.9383 0 1.43311
22.7478 0 -4.59742
16.9119 0 -15.2585
-15.4761 0 -47.0656
-14.9184 0 86.144
-18.4738 0 0.170143
-8.15641 0 16.3954
-12.1205 0 8.78405
-18.2708 0 1.42743
13.0438 0 33.7773
-4.19602 0 -12.448
4.33126 0 -1.07537
-24.5662 0 -17.1715
4.64569 0 32.1562
21.8122 0 -3.57932
-0.327843 0 -13.1226
-5.22737 0 -3.52717
12.6756 0 -50.0569
-9.34202 0 2.60114
-26.6536 0 5.93689
5.48068 0 -11.1728
-46.2228 0 6.90353
-16.328 0 11.8786
21.9951 0 37.3581
-11.332 0 1.61097
19.7184 0 35.4361
3.1579 0 -13.691
6.73092 0 -0.637209
-79.3354 0 1.26847
89.2972 0 49.8174
-84.7563 0 45.852
74.9732 0 0.315873
-8.67628 0 1.53897
-2.08596 0 -17.3014
-19.3501 0 35.4655
10.8877 0 1.78888
-18.8658 0 36.3151
15.7485 0 11.2266
46.1232 0 6.69139
-5.5353 0 -11.2856
26.8545 0 6.05723
9.3601 0 2.56732
-12.1417 0 -50.6825
5.66001 0 -3.74877
0.320973 0 -13.147
-21.8492 0 -3.61377
-4.65094 0 32.1739
24.5724 0 -17.1749
-4.32691 0 -1.07079
4.20644 0 -12.4319
-13.0522 0 33.699
18.3014 0 1.44609
12.1844 0 8.91959
8.14733 0 16.3958
18.4725 0 0.171031
14.9177 0 86.1412
15.4151 0 -47.0059
-16.9131 0 -15.2578
-22.7477 0 -4.59924
30.9377 0 1.43216
18.0871 0 -6.95158
19.3391 0 5.15445
-24.8487 0 19.3414
3.22673 0 -2.63909
-49.8093 0 -1.37674
92.5536 0 23.967
-15.3209 0 -5.47314
-12.5677 0 4.22478
17.741 0 -0.982586
-1.95044 0 -2.60827
-60.4262 0 -7.97382
48.3405 0 -25.5626
10.0863 0 1.69841
-37.0294 0 20.2162
0.469624 0 -8.64618
3.91667 0 10.0986
10.108 0 -16.1211
12.3562 0 1.95789
-19.259 0 -3.85804
37.2069 0 -9.18468
-57.6643 0 17.8752
99.6224 0 -11.1641
5.09745 0 -2.11369
1.03612 0 -0.3574
-3.0003 0 18.7817
-10.4016 0 -7.48719
15.4409 0 6.88355
52.2406 0 -15.0107
2.89413 0 14.3655
-13.5914 0 -9.08089
13.5723 0 -8.81024
-1.90641 0 13.4892
-53.1738 0 -14.5576
-15.3303 0 7.23869
12.144 0 -7.54634
3.19628 0 18.5834
-1.32823 0 0.200962
-4.89246 0 -2.38686
-99.8748 0 -12.1604
57.2934 0 18.0391
-37.5527 0 -8.78269
17.5513 0 -2.13655
-13.2473 0 2.17193
-10.176 0 -15.9917
-3.88804 0 10.0955
-0.500409 0 -8.68463
37.0778 0 20.2362
-10.0896 0 1.71438
-48.2274 0 -25.7475
60.3889 0 -7.9819
1.93976 0 -2.60306
-17.706 0 -0.997444
12.5455 0 4.22046
15.3154 0 -5.49854
-92.636 0 23.9938
49.987 0 -1.45174
-3.24428 0 -2.64591
24.8498 0 19.341
-19.3376 0 5.15716
-18.0868 0 -6.95117
-10.8873 0 12.7596
4.4932 0 -6.88699
-5.76749 0 -0.249543
21.4624 0 -41.375
-11.7895 0 -0.202562
-2.37345 0 -5.62033
12.2629 0 -11.5176
4.69588 0 0.336312
-5.46298 0 -15.9742
10.0886 0 3.82083
-31.8625 0 -100.2
-10.5026 0 13.6712
0.602717 0 -18.7514
3.58431 0 -0.26584
-44.1307 0 -57.4659
4.80031 0 -28.4047
-3.50247 0 -4.04679
-0.13503 0 17.3794
-8.05439 0 -2.65114
-13.5677 0 6.2565
1.0405 0 19.5812
4.31995 0 11.3341
0.293544 0 26.3178
-31.3953 0 -1.18299
33.1694 0 7.26608
-2.30867 0 -75.1102
-8.96315 0 2.99687
-54.8313 0 25.0451
-1.8682 0 -13.9056
-6.54447 0 11.127
5.31844 0 11.2772
6.7837 0 -12.8019
55.802 0 26.0783
7.04367 0 2.35054
1.99025 0 -73.4814
-32.5422 0 7.79075
30.6722 0 -1.33593
-0.415886 0 28.7438
-4.62208 0 10.1045
0.107332 0 17.9095
14.5282 0 5.97977
7.97804 0 -2.87742
0.119785 0 17.366
3.46641 0 -4.00328
-4.70859 0 -28.41
44.4211 0 -57.6727
-3.59473 0 -0.309049
-0.958847 0 -18.3564
10.6774 0 13.638
31.8534 0 -100.138
-10.0988 0 3.8092
5.48051 0 -16.043
-4.69635 0 0.342595
-12.2586 0 -11.5156
2.34555 0 -5.65323
11.79 0 -0.202584
-21.4613 0 -41.368
5.76992 0 -0.250399
-4.4959 0 -6.88498
10.8872 0 12.7565
7.08721 0 -18.1563
11.4324 0 7.62902
-0.164294 0 -1.35791
-26.5569 0 19.2014
21.961 0 9.51732
-4.79329 0 20.8957
5.66496 0 24.8701
-2.43664 0 2.8617
-2.26566 0 -1.32412
24.6861 0 -15.5213
33.8839 0 105.801
-5.96849 0 -6.77684
32.0927 0 43.4629
-16.2264 0 -28.1083
-1.58707 0 21.2056
-72.3611 0 -42.6465
11.6592 0 14.2161
-0.608587 0 12.8088
-22.1084 0 9.47528
4.07267 0 -17.0924
-16.6861 0 4.023
19.3853 0 -9.08896
-3.29305 0 8.79742
4.80223 0 -2.1186
17.3192 0 -11.3717
-26.1437 0 24.253
-3.15628 0 33.9458
3.03079 0 -18.4496
2.42004 0 13.5659
-0.460123 0 -8.29105
-1.31581 0 -8.89887
-4.329 0 12.7207
-1.76409 0 -16.9395
0.0765436 0 33.8679
26.0304 0 24.3354
-17.1289 0 -11.3598
-4.56752 0 -0.505912
3.34088 0 8.49302
-18.6268 0 -9.01201
16.0616 0 2.85086
-4.0382 0 -17.126
22.064 0 9.45519
0.737054 0 13.0471
-11.6538 0 14.2176
72.3892 0 -42.6323
1.04904 0 21.6651
16.1826 0 -28.1191
-31.9834 0 43.3318
5.94388 0 -6.81118
-33.8734 0 105.756
-24.6801 0 -15.505
2.28634 0 -1.30128
2.43297 0 2.86539
-5.66139 0 24.8731
4.79231 0 20.8959
-21.9618 0 9.51524
26.5538 0 19.1984
0.162317 0 -1.3567
-11.43 0 7.62964
-7.08399 0 -18.1567
-6.46166 0 -18.2482
1.67132 0 -2.69952
-33.262 0 20.4094
-20.7746 0 2.50378
29.9844 0 -18.1853
-20.2106 0 -6.56363
-81.2706 0 8.83002
61.9394 0 -18.4475
-32.2824 0 25.0051
-4.65662 0 14.8891
-86.6167 0 -30.12
-20.2964 0 -17.1656
-5.59928 0 -5.1302
20.0282 0 -24.4492
30.3726 0 -10.0439
30.0809 0 12.0109
41.4156 0 66.6552
1.20208 0 -11.4129
12.2598 0 -7.45588
1.16569 0 -9.80047
-32.3275 0 -2.04517
38.0954 0 -1.32683
-21.5292 0 0.168561
24.2018 0 -3.55836
-22.5071 0 16.8699
15.6599 0 -20.3698
-1.09083 0 3.6022
10.8604 0 46.24
22.5423 0 -38.4471
-32.9626 0 8.25783
32.6492 0 7.94293
-20.8719 0 -40.2125
-7.78448 0 46.4112
0.776252 0 3.82923
-15.7844 0 -20.8576
22.5914 0 16.4824
-24.568 0 -3.41804
21.7613 0 0.234528
-36.5182 0 -0.0580935
30.1314 0 -2.19076
-0.997451 0 -9.73102
-12.3763 0 -7.38527
-1.20712 0 -11.4182
-41.3949 0 66.7754
-29.8705 0 11.6858
-30.3828 0 -10.0953
-19.8631 0 -24.7457
5.8327 0 -5.01305
20.3235 0 -17.7201
87.3185 0 -30.2254
4.61451 0 14.9079
32.2967 0 25.0206
-61.8808 0 -18.4442
81.2369 0 8.81534
20.2049 0 -6.56493
-29.9823 0 -18.1842
20.7678 0 2.49251
33.2678 0 20.4167
-1.66923 0 -2.69764
6.47126 0 -18.2645
2.86479 0 8.64625
26.8795 0 30.5035
13.4144 0 22.8568
9.45218 0 0.221096
14.8947 0 -17.5677
17.8426 0 9.18143
27.6623 0 -16.6722
-4.74792 0 -70.7548
-25.637 0 51.2268
-20.1085 0 -20.7749
1.99474 0 16.1435
85.9204 0 45.1947
-31.5003 0 -28.4495
-3.38269 0 19.972
-6.93702 0 -17.1045
-13.7016 0 6.93292
-15.1816 0 10.4645
-0.230588 0 -9.00334
-0.241279 0 1.21245
3.50344 0 -28.2776
-19.7711 0 0.313595
-10.8249 0 33.2331
1.64637 0 6.14384
15.2854 0 -21.8786
-32.0952 0 8.62867
-20.4287 0 6.65971
-9.85075 0 3.99633
8.81507 0 -17.8628
1.46755 0 -14.4632
1.4507 0 4.9413
-1.62958 0 5.01177
-1.68762 0 -14.4769
-8.84467 0 -17.9066
10.089 0 3.91907
20.2361 0 6.65899
32.0069 0 8.49415
-15.1812 0 -21.4616
-1.33019 0 6.29178
10.6479 0 32.844
20.0805 0 0.225066
-3.02258 0 -27.8315
-0.131593 0 0.993004
0.22935 0 -9.16
15.2134 0 10.5097
13.758 0 7.078
6.81299 0 -16.9688
3.1305 0 19.993
31.5412 0 -28.6228
-86.7241 0 45.9547
-2.00087 0 16.1689
20.0178 0 -20.7078
25.6128 0 51.1625
4.76353 0 -70.6806
-27.6677 0 -16.6786
-17.8389 0 9.18381
-14.8927 0 -17.5667
-9.45103 0 0.219461
-13.4126 0 22.8535
-26.894 0 30.5166
-2.86853 0 8.65064
3.62205 0 2.85216
4.48199 0 1.01703
-37.402 0 -24.3011
26.0499 0 -16.6133
-11.8997 0 37.0598
-14.1582 0 21.0697
13.5455 0 -14.5399
-12.3013 0 -0.067649
15.2343 0 9.79994
87.8335 0 11.1719
-0.885444 0 2.11999
7.64786 0 -2.18181
8.75301 0 -7.67642
27.0335 0 27.2139
-1.64823 0 35.696
-6.96738 0 -15.9179
-9.28847 0 -55.192
11.7632 0 3.39595
11.077 0 10.1675
3.34906 0 16.889
-0.252717 0 5.05284
14.1668 0 -11.1703
33.9463 0 -2.85604
-21.0344 0 -6.24225
-7.53418 0 -3.5757
0.436684 0 -7.33715
4.48931 0 8.39318
-5.95221 0 -1.79875
-22.6412 0 -76.7992
8.09345 0 14.9829
-6.67077 0 16.0144
20.6251 0 -76.6617
5.74465 0 -1.68156
-4.28576 0 8.38389
-0.486001 0 -7.25808
7.43694 0 -3.43786
21.0376 0 -7.60194
-34.464 0 -2.87587
-14.1167 0 -9.72468
0.237003 0 4.76948
-3.6219 0 16.3772
-11.1853 0 10.232
-11.9169 0 3.36069
9.09699 0 -56.7914
7.9065 0 -16.7238
1.68359 0 35.551
-26.9822 0 27.2239
-8.73702 0 -7.72836
-7.7285 0 -2.24898
0.853162 0 2.13014
-87.7856 0 11.1092
-15.2398 0 9.77797
12.3253 0 -0.054195
-13.5569 0 -14.5522
14.1509 0 21.0778
11.8983 0 37.0618
-26.0499 0 -16.6105
37.3956 0 -24.2994
-4.48 0 1.01866
-3.62603 0 2.85453
19.6166 0 -7.71543
-12.7075 0 39.5067
-2.93623 0 10.8608
20.1399 0 -15.8459
8.43887 0 5.2302
-4.1814 0 -17.7558
-9.79723 0 7.89874
-20.8418 0 -5.75558
39.8137 0 -7.21607
-28.9874 0 28.1827
4.26017 0 -34.4228
-0.871809 0 -79.3113
-8.0614 0 6.53344
21.1039 0 5.46511
-11.6037 0 -6.1308
-14.6799 0 2.63721
4.92904 0 13.1135
12.2933 0 32.7733
-0.264003 0 -10.0676
-44.1676 0 -12.0622
-4.63825 0 33.3739
20.7367 0 -45.6776
-30.9155 0 22.1461
5.03786 0 -12.4645
10.4177 0 -0.855913
-2.21991 0 -4.54695
6.64399 0 -10.7604
9.80768 0 18.218
-22.6233 0 -4.40928
-2.67272 0 -12.128
1.50236 0 -12.6227
22.4714 0 -5.04474
-9.66815 0 18.487
-6.96753 0 -10.5991
2.35027 0 -4.62211
-10.2841 0 -1.00044
-5.2046 0 -12.1478
31.1469 0 21.9878
-21.8129 0 -45.6412
5.59464 0 32.3519
44.7196 0 -11.9276
1.08042 0 -10.1246
-12.9002 0 34.1539
-4.92487 0 13.3991
14.7347 0 2.65534
11.764 0 -6.82643
-21.1632 0 5.3829
8.54485 0 6.6161
0.448672 0 -79.6172