# vtk DataFile Version 3.0
SiWiRVisFile
ASCII
DATASET UNSTRUCTURED_GRID
POINTS 1600 DOUBLE
76.4353 100 72.7413
76.3315 100 73.8062
77.4566 100 74.151
79.6239 100 73.7558
80.6723 100 74.1887
81.6448 100 74.6895
83.615 100 74.548
84.7647 100 74.8631
85.7195 100 75.5428
84.3851 100 73.7712
91.7518 100 72.4129
90.9941 100 71.1512
90.7669 100 73.0632
89.9446 100 70.8357
87.8777 100 70.2054
90.671 100 62.5293
91.8431 100 62.5477
93.5426 100 61.0538
90.5674 100 56.9415
95.969 100 59.9586
103.76 100 43.1288
106.066 100 43.8625
106.171 100 42.754
107.11 100 43.2842
105.251 100 42.215
110.372 100 43.1979
110.691 100 37.0915
111.512 100 36.542
110.718 100 38.3663
111.845 100 38.2262
112.91 100 38.0385
113.901 100 38.4432
112.598 100 36.5502
113.512 100 37.0977
114.15 100 43.4488
119.243 100 42.2197
117.377 100 43.2622
118.318 100 42.7579
118.411 100 43.8683
120.726 100 43.1179
129.122 100 59.5236
133.925 100 56.9415
130.724 100 60.9618
132.457 100 63.2866
133.68 100 62.6539
136.032 100 70.4767
134.873 100 70.3484
134.208 100 72.8001
133.149 100 71.0583
133.137 100 72.3763
140.159 100 73.7467
138.763 100 75.5783
139.721 100 74.8598
140.847 100 74.582
142.784 100 74.719
143.77 100 74.1736
144.841 100 73.7988
147.033 100 74.1504
148.149 100 73.8067
148.058 100 72.7376
75.5725 100 74.5312
76.6102 100 74.9121
78.6604 100 74.4076
79.6152 100 74.9189
80.7312 100 75.4193
82.6458 100 75.0953
83.8122 100 75.6245
84.8286 100 76.0152
85.6199 100 76.6304
86.9333 100 76.5742
87.9951 100 76.1702
91.875 100 70.2285
90.0474 100 71.9846
91.2679 100 67.6093
92.3603 100 64.7837
90.8577 100 70.0995
92.9568 100 62.4234
95.0693 100 60.725
96.1961 100 61.1282
98.1148 100 60.7163
105.01 100 43.3435
97.9304 100 49.5777
106.201 100 51.7019
110.673 100 41.2916
107.946 100 42.5169
109.323 100 43.7274
109.919 100 42.1581
109.652 100 41.0069
107.875 100 36.2402
111.631 100 39.263
113.118 100 39.1412
116.719 100 36.2714
114.506 100 40.5617
114.358 100 42.2452
115.314 100 43.8678
116.524 100 42.5292
113.724 100 41.3413
118.495 100 50.9443
126.562 100 49.5777
119.482 100 43.3552
126.206 100 60.6928
128.304 100 61.0272
129.47 100 60.5509
131.96 100 62.0521
133.411 100 69.8607
132.284 100 64.6069
133.074 100 67.6619
134.383 100 71.6903
132.106 100 70.5952
136.35 100 76.5303
137.701 100 76.2972
138.745 100 76.7309
139.635 100 76.0606
140.697 100 75.6014
141.781 100 75.21
143.767 100 75.3666
144.88 100 74.9464
145.816 100 74.4308
147.864 100 74.9085
148.925 100 74.5011
75.7549 100 75.5815
76.8693 100 75.996
77.6894 100 75.2408
78.7784 100 75.7116
79.8599 100 76.01
81.8114 100 75.891
82.9259 100 76.2454
83.9663 100 76.7129
84.8578 100 77.3842
85.9834 100 77.6271
87.2439 100 77.6176
88.4114 100 78.2068
89.6981 100 76.5481
91.5634 100 69.1346
92.1751 100 67.0949
93.3627 100 65.7521
92.9959 100 63.5373
94.1174 100 62.9821
95.1489 100 61.9555
97.1569 100 59.9021
98.2517 100 59.6183
104.382 100 52.9178
105.346 100 52.3744
106.363 100 53.007
102.735 100 49.2341
107.359 100 51.4855
106.713 100 50.6633
105.383 100 50.6119
110.508 100 39.5098
111.199 100 40.3503
113.476 100 40.1888
114.315 100 39.4881
119.864 100 49.8541
117.007 100 50.8718
117.555 100 51.8445
120.909 100 50.3449
117.512 100 52.9728
118.563 100 52.4984
120.71 100 53.2244
125.543 100 59.5699
127.328 100 60.4426
129.448 100 61.6898
130.464 100 62.5595
131.438 100 63.5595
131.595 100 65.6897
132.026 100 67.2641
133.086 100 68.732
133.931 100 76.7672
136.026 100 77.7386
137.218 100 77.3499
138.344 100 77.6665
139.705 100 77.541
140.592 100 76.7444
141.629 100 76.3496
142.657 100 75.8617
144.62 100 76.0228
145.678 100 75.6893
146.787 100 75.2268
147.627 100 75.9644
148.738 100 75.5729
75.8963 100 76.5931
77.0397 100 77.0808
77.909 100 76.4142
78.9733 100 76.7833
80.9993 100 76.5279
81.9188 100 77.0202
83.0171 100 77.3806
83.8692 100 77.946
85.2949 100 78.4718
86.5778 100 78.5122
87.7097 100 79.4601
89.6639 100 77.8658
88.819 100 77.2508
92.9581 100 69.1823
92.2439 100 68.2112
93.2256 100 66.9571
94.9201 100 64.9824
93.5156 100 64.703
94.4899 100 63.9485
95.1521 100 63.0304
96.1864 100 62.1952
99.218 100 60.3718
104.577 100 51.6295
105.822 100 56.647
105.38 100 53.5745
105.893 100 54.4905
108.919 100 53.8233
110.018 100 53.8611
108.092 100 50.6427
111.091 100 42.4577
113.373 100 42.4694
116.229 100 51.718
115.347 100 52.4629
115.69 100 53.6994
118.257 100 53.8353
119.504 100 53.7533
119.732 100 54.7906
119.68 100 52.6013
125.166 100 60.5549
127.936 100 62.4145
129.082 100 62.7242
130.133 100 63.6242
131.192 100 64.6201
130.494 100 65.6755
130.848 100 66.8229
131.99 100 68.3511
132.208 100 69.3909
135.239 100 77.0129
135.312 100 78.7327
136.727 100 78.6804
137.872 100 78.6304
139.048 100 78.418
140.448 100 78.3642
141.442 100 77.477
142.48 100 77.0539
143.486 100 76.6155
145.475 100 76.7574
146.573 100 76.3924
147.466 100 77.0506
148.606 100 76.5894
76.1711 100 77.6265
77.2096 100 78.2596
78.0221 100 77.5476
80.07 100 77.2462
81.0467 100 77.7901
82.1354 100 78.1828
83.2489 100 78.9789
84.4311 100 79.1601
85.5372 100 79.4556
86.7104 100 79.6046
87.2483 100 80.6785
90.0008 100 79.066
90.9127 100 77.0047
94.199 100 67.569
93.327 100 68.0963
95.4676 100 65.9231
96.3817 100 65.1413
95.6839 100 64.1612
96.3659 100 63.2988
97.5731 100 62.6184
97.2182 100 61.618
103.134 100 60.1438
105.401 100 55.6255
107.126 100 54.7169
107.367 100 53.5411
108.259 100 54.7449
109.373 100 54.8716
110.277 100 55.4886
108.371 100 52.7871
111.377 100 44.498
113.081 100 44.4435
116.367 100 52.8215
113.875 100 55.2896
114.815 100 54.2759
116.013 100 54.7962
116.817 100 53.7741
117.243 100 54.8635
117.812 100 55.8656
121.387 100 59.87
127.253 100 61.5097
126.778 100 62.5688
127.448 100 63.4678
129.064 100 64.0673
129.934 100 64.7291
128.59 100 66.0329
131.044 100 68.8222
129.958 100 67.682
134.608 100 77.797
134.361 100 79.2991
137.334 100 80.8135
137.512 100 79.6511
138.655 100 79.4245
139.901 100 79.3507
141.487 100 78.7919
142.432 100 78.2166
143.454 100 77.8104
144.477 100 77.3406
146.469 100 77.4791
147.254 100 78.2209
148.324 100 77.6238
75.8637 100 78.7757
76.9881 100 79.4761
78.1139 100 78.8785
78.9967 100 77.9803
80.0446 100 78.4424
81.0835 100 78.8899
82.0852 100 79.2342
82.853 100 79.9908
83.9107 100 80.1072
85.0233 100 80.4352
86.1251 100 80.551
88.7783 100 79.1539
90.8815 100 80.1761
89.6337 100 75.4467
91.3841 100 75.0249
94.3724 100 66.1839
96.6246 100 66.2966
97.663 100 65.5767
97.3723 100 64.4674
98.3006 100 63.825
98.271 100 61.8234
101.056 100 61.3982
103.596 100 58.34
104.765 100 58.1178
106.5 100 55.8519
107.836 100 55.8181
108.224 100 56.8925
108.918 100 55.7898
111.65 100 55.5227
111.088 100 53.473
114.453 100 53.2243
112.756 100 55.6061
115.128 100 55.784
115.747 100 56.7276
116.623 100 56.0035
119.007 100 56.0264
119.644 100 57.1915
120.534 100 58.702
123.624 100 61.3884
125.913 100 61.6769
126.181 100 63.4659
128.297 100 65.0675
127.378 100 65.704
127.821 100 66.7523
129.838 100 66.6211
132.945 100 74.7707
134.747 100 74.5784
133.62 100 80.1495
136.161 100 79.7381
138.377 100 80.4986
139.491 100 80.5084
140.528 100 80.3293
141.528 100 79.8869
142.524 100 79.462
143.386 100 78.9377
144.44 100 78.4581
145.522 100 77.9523
146.421 100 78.8194
147.496 100 79.4008
148.604 100 78.757
74.8805 100 79.3905
75.8478 100 79.8868
78.1745 100 79.9092
79.1487 100 79.2564
80.297 100 79.767
80.133 100 81.6803
82.0413 100 80.7546
83.1626 100 81.1673
84.1942 100 81.5616
85.3616 100 81.4302
86.5992 100 81.5797
89.697 100 80.1686
91.2862 100 81.3005
90.6904 100 75.9346
95.3572 100 68.1781
95.5188 100 67.1666
97.3031 100 67.7979
98.8133 100 66.3014
98.5345 100 64.8736
98.7903 100 62.8098
99.6421 100 61.5229
102.157 100 60.7316
104.078 100 59.4373
107.16 100 56.7325
109.125 100 57.7
109.854 100 56.5833
109.293 100 59.8715
110.96 100 56.4365
108.625 100 60.7604
109.436 100 61.6408
115.026 100 60.8101
115.791 100 59.9705
114.183 100 56.3106
114.749 100 59.7241
114.887 100 57.6182
115.973 100 57.8145
117.308 100 56.8929
120.055 100 59.6983
122.265 100 60.6775
124.693 100 61.5585
125.325 100 62.6383
126.602 100 64.5423
126.18 100 65.6548
127.152 100 67.8656
128.988 100 67.2245
129.18 100 68.6135
134.164 100 75.5004
131.951 100 81.6709
135.117 100 80.1038
138.066 100 81.6975
139.137 100 81.5611
140.327 100 81.5365
141.363 100 81.103
142.424 100 80.6295
144.282 100 80.8611
144.38 100 79.8593
145.408 100 79.2199
146.482 100 79.9396
148.648 100 79.8796
149.617 100 79.352
74.9666 100 80.55
76.1642 100 80.9297
77.1598 100 80.5192
78.1919 100 81.0125
79.349 100 80.3257
79.0756 100 81.521
81.1595 100 81.4278
82.2183 100 81.7992
83.2516 100 82.2387
84.8733 100 82.4124
86.1164 100 82.7289
87.242 100 82.4539
88.3218 100 80.3023
87.9858 100 81.4224
88.4306 100 82.5365
92.0881 100 80.3064
96.8137 100 68.9775
97.6574 100 66.7963
100.785 100 65.5119
99.5452 100 65.2158
99.5472 100 63.9488
99.9235 100 62.7119
103.962 100 60.8794
106.29 100 57.6523
107.561 100 57.7686
109.042 100 58.8043
107.887 100 58.8585
106.106 100 61.4271
107.515 100 61.8919
109.661 100 63.4356
115.345 100 62.6891
118.154 100 61.4885
119.09 100 62.0241
115.976 100 58.8634
114.851 100 58.665
117.282 100 57.9938
118.46 100 57.426
120.652 100 60.8055
123.996 100 62.9224
125.145 100 63.9474
124.67 100 65.2603
125.167 100 66.2207
126.738 100 66.8874
128.163 100 67.9341
132.421 100 80.729
135.877 100 82.2631
136.894 100 81.7484
136.133 100 80.9509
136.996 100 82.7893
138.089 100 82.7612
139.125 100 82.6233
141.152 100 82.1313
142.347 100 81.7019
143.405 100 81.3301
145.428 100 81.6866
145.461 100 80.2626
146.309 100 81.099
147.367 100 80.4577
148.384 100 80.9936
149.525 100 80.5613
75.0629 100 81.7115
76.3956 100 82.1138
77.3656 100 81.6128
78.2648 100 82.3492
79.4069 100 84.1579
77.9399 100 84.7451
79.3404 100 82.633
80.76 100 82.5653
82.1684 100 82.9381
81.2893 100 83.5521
83.1114 100 83.3495
85.5288 100 83.883
86.7072 100 83.806
88.0507 100 83.7574
89.365 100 83.1102
91.1797 100 79.138
97.6894 100 69.9336
97.8907 100 68.874
99.9368 100 66.2947
100.603 100 67.1021
101.14 100 63.4817
[...]
POINT_DATA 1600
SCALARS mass double
LOOKUP_TABLE default
1
1
1
1
1
1
1
1
1
1
1
1
1
1
1
1
1
1
1
1
1
1
1
1
1
1
1
1
1
1
1
1
1
1
1
1
1
1
1
1
1
1
1
1
1
1
1
1
1
1
1
1
1
1
1
1
1
1
1
1
1
1
1
1
1
1
1
1
1
1
1
1
1
1
1
1
1
1
1
1
1
1
1
1
1
1
1
1
1
1
1
1
1
1
1
1
1
1
1
1
1
1
1
1
1
1
1
1
1
1
1
1
1
1
1
1
1
1
1
1
1
1
1
1
1
1
1
1
1
1
1
1
1
1
1
1
1
1
1
1
1
1
1
1
1
1
1
1
1
1
1
1
1
1
1
1
1
1
1
1
1
1
1
1
1
1
1
1
1
1
1
1
1
1
1
1
1
1
1
1
1
1
1
1
1
1
1
1
1
1
1
1
1
1
1
1
1
1
1
1
1
1
1
1
1
1
1
1
1
1
1
1
1
1
1
1
1
1
1
1
1
1
1
1
1
1
1
1
1
1
1
1
1
1
1
1
1
1
1
1
1
1
1
1
1
1
1
1
1
1
1
1
1
1
1
1
1
1
1
1
1
1
1
1
1
1
1
1
1
1
1
1
1
1
1
1
1
1
1
1
1
1
1
1
1
1
1
1
1
1
1
1
1
1
1
1
1
1
1
1
1
1
1
1
1
1
1
1
1
1
1
1
1
1
1
1
1
1
1
1
1
1
1
1
1
1
1
1
1
1
1
1
1
1
1
1
1
1
1
1
1
1
1
1
1
1
1
1
1
1
1
1
1
1
1
1
1
1
1
1
1
1
1
1
1
1
1
1
1
1
1
1
1
1
1
1
1
1
1
1
1
1
1
1
1
1
1
1
1
1
1
1
1
1
1
1
1
1
1
1
1
1
1
1
1
1
1
1
1
1
1
1
1
1
1
1
1
1
1
1
1
1
1
1
1
1
1
1
1
1
1
1
1
1
1
1
1
1
1
1
1
1
1
1
1
1
1
1
1
1
1
1
1
1
1
1
1
1
1
1
1
1
1
1
1
1
1
1
1
1
1
1
1
1
1
1
1
1
1
1
1
1
1
1
1
1
1
1
1
1
1
1
1
1
1
1
1
1
1
1
1
1
1
1
1
1
1
1
1
1
1
1
1
1
1
1
1
1
1
1
1
1
1
1
1
1
1
1
1
1
1
1
1
1
1
1
1
1
1
1
1
1
1
1
1
1
1
1
1
1
1
1
1
1
1
1
1
1
1
1
1
1
1
1
1
1
1
1
1
1
1
1
1
1
1
1
1
1
1
1
1
1
1
1
1
1
1
1
1
1
1
1
1
1
1
1
1
1
1
1
1
1
1
1
1
1
1
1
1
1
1
1
1
1
1
1
1
1
1
1
1
1
1
1
1
1
1
1
1
1
1
1
1
1
1
1
1
1
1
1
1
1
1
1
1
1
1
1
1
1
1
1
1
1
1
1
1
1
1
1
1
1
1
1
1
1
1
1
1
1
1
1
1
1
1
1
1
1
1
1
1
1
1
1
1
1
1
1
1
1
1
1
1
1
1
1
1
1
1
1
1
1
1
1
1
1
1
1
1
1
1
1
1
1
1
1
1
1
1
1
1
1
1
1
1
1
1
1
1
1
1
1
1
1
1
1
1
1
1
1
1
1
1
1
1
1
1
1
1
1
1
1
1
1
1
1
1
1
1
1
1
1
1
1
1
1
1
1
1
1
1
1
1
1
1
1
1
1
1
1
1
1
1
1
1
1
1
1
1
1
1
1
1
1
1
1
1
1
1
1
1
1
1
1
1
1
1
1
1
1
1
1
1
1
1
1
1
1
1
1
1
1
1
1
1
1
1
1
1
1
1
1
1
1
1
1
1
1
1
1
1
1
1
1
1
1
1
1
1
1
1
1
1
1
1
1
1
1
1
1
1
1
1
1
1
1
1
1
1
1
1
1
1
1
1
1
1
1
1
1
1
1
1
1
1
1
1
1
1
1
1
1
1
1
1
1
1
1
1
1
1
1
1
1
1
1
1
1
1
1
1
1
1
1
1
1
1
1
1
1
1
1
1
1
1
1
1
1
1
1
1
1
1
1
1
1
1
1
1
1
1
1
1
1
1
1
1
1
1
1
1
1
1
1
1
1
1
1
1
1
1
1
1
1
1
1
1
1
1
1
1
1
1
1
1
1
1
1
1
1
1
1
1
1
1
1
1
1
1
1
1
1
1
1
1
1
1
1
1
1
1
1
1
1
1
1
1
1
1
1
1
1
1
1
1
1
1
1
1
1
1
1
1
1
1
1
1
1
1
1
1
1
1
1
1
1
1
1
1
1
1
1
1
1
1
1
1
1
1
1
1
1
1
1
1
1
1
1
1
1
1
1
1
1
1
1
1
1
1
1
1
1
1
1
1
1
1
1
1
1
1
1
1
1
1
1
1
1
1
1
1
1
1
1
1
1
1
1
1
1
1
1
1
1
1
1
1
1
1
1
1
1
1
1
1
1
1
1
1
1
1
1
1
1
1
1
1
1
1
1
1
1
1
1
1
1
1
1
1
1
1
1
1
1
1
1
1
1
1
1
1
1
1
1
1
1
1
1
1
1
1
1
1
1
1
1
1
1
1
1
1
1
1
1
1
1
1
1
1
1
1
1
1
1
1
1
1
1
1
1
1
1
1
1
1
1
1
1
1
1
1
1
1
1
1
1
1
1
1
1
1
1
1
1
1
1
1
1
1
1
1
1
1
1
1
1
1
1
1
1
1
1
1
1
1
1
1
1
1
1
1
1
1
1
1
1
1
1
1
1
1
1
1
1
1
1
1
1
1
1
1
1
1
1
1
1
1
1
1
1
1
1
1
1
1
1
1
1
1
1
1
1
1
1
1
1
1
1
1
1
1
1
1
1
1
1
1
1
1
1
1
1
1
1
1
1
1
1
1
1
1
1
1
1
1
1
1
1
1
1
1
1
1
1
1
1
1
1
1
1
1
1
1
1
1
1
1
1
1
1
1
1
1
1
1
1
1
1
1
1
1
1
1
1
1
1
1
1
1
1
1
1
1
1
1
1
1
1
1
1
1
1
1
1
1
1
1
1
1
1
1
1
1
1
1
1
1
1
1
1
1
1
1
1
1
1
1
1
1
1
1
1
1
1
1
1
1
1
1
1
1
1
1
1
1
1
1
1
1
1
1
1
1
1
1
1
1
1
1
1
1
1
1
1
1
1
1
1
1
1
1
1
1
1
1
1
1
1
1
1
1
1
1
1
1
1
1
1
1
1
1
1
1
1
1
1
1
1
1
1
1
1
1
1
1
1
1
1
1
1
1
1
1
1
1
1
1
1
1
1
1
1
1
1
1
1
1
1
1
1
1
1
1
1
1
1
1
1
1
1
1
1
1
1
1
1
1
1
1
1
1
1
1
1
1
1
1
1
1
1
1
1
1
1
1
1
1
1
1
1
1
1
1
1
1
1
1
1
1
1
1
1
1
1
1
1
1
1
1
1
1
1
1
1
1
1
1
1
1
1
1
1
1
1
1
1
1
1
1
1
1
1
1
1
1
1
1
1
1
1
1
1
1
1
1
1
1
1
1
1
VECTORS force double
3.39617 0 -21.5871
38.8759 0 5.136
-2.66157 0 0.580515
-3.87464 0 15.7514
-21.6693 0 14.646
-12.6283 0 17.1738
2.60717 0 2.1166
-14.7567 0 11.7968
84.6124 0 -60.5433
9.47931 0 1.12014
-13.8165 0 -1.51893
16.0049 0 40.244
2.16702 0 -15.484
-0.871064 0 -2.08698
0.511492 0 0.155973
9.40101 0 0.124977
-4.77965 0 3.56737
3.43119 0 6.4437
0 0 0
5.85774 0 17.8741
14.0102 0 0.873837
-0.11343 0 -8.28386
-0.684422 0 6.69092
9.05598 0 12.2376
-26.1945 0 -4.61944
-51.4156 0 47.9321
-120.99 0 98.3782
111.643 0 -79.785
10.771 0 3.70963
-11.6829 0 -32.6733
-10.3011 0 -14.325
51.6835 0 -24.91
-10.0397 0 -7.33816
26.2807 0 22.1994
0.781373 0 -12.8848
23.9561 0 -2.15064
-13.624 0 17.6128
9.77553 0 2.37676
0.732971 0 -9.18679
-14.09 0 1.03536
-6.50032 0 -11.2514
0 0 0
-14.7733 0 5.49335
36.5376 0 -12.0767
-10.0107 0 3.89341
-8.98815 0 -0.467141
-0.457939 0 6.8469
-5.96195 0 -1.63905
7.30088 0 0.0863167
12.3384 0 -12.5376
-14.4992 0 -1.1814
-111.228 0 -54.4817
11.8995 0 14.582
14.7096 0 -46.1748
9.63207 0 11.8936
10.1881 0 17.9321
3.67515 0 13.6161
0.310276 0 -4.64599
-46.205 0 -2.74758
-2.85658 0 -19.4233
-37.9459 0 0.375107
20.6433 0 -13.6889
-26.8067 0 5.62008
29.1867 0 3.24531
37.4608 0 -34.7386
22.0025 0 28.977
1.6024 0 -23.0217
-167.049 0 -17.7443
102.901 0 36.6944
-19.6944 0 -8.66252
4.60649 0 12.6185
66.2266 0 10.0674
16.9896 0 -5.28472
-36.0349 0 32.1487
17.8593 0 -2.00739
-76.5095 0 -43.6113
13.9289 0 -2.09288
15.6616 0 11.8714
-12.8799 0 -35.7157
-11.0733 0 5.22982
8.88745 0 -9.48278
0 0 0
15.6512 0 -12.4605
22.438 0 40.0039
-2.18873 0 3.33338
8.56326 0 -8.18677
12.2416 0 -5.9401
-25.2274 0 -1.31526
0 0 0
-16.1769 0 32.9042
-31.3572 0 25.8571
0 0 0
14.9271 0 13.4748
99.5853 0 -7.27043
-10.7434 0 -6.79796
0.735931 0 2.04014
-12.5672 0 -1.58953
-11.8948 0 11.7601
0 0 0
-9.72523 0 -10.2911
70.0401 0 -63.4031
9.53209 0 8.42069
3.20599 0 27.7511
-2.50875 0 13.3577
-16.3256 0 2.63802
-0.0930258 0 -8.35867
-10.6658 0 -17.0574
-11.7338 0 -8.12992
10.4178 0 -13.3779
2.84723 0 23.0653
2.87765 0 8.11148
37.6198 0 -71.5747
130.609 0 58.2654
-11.6874 0 71.3105
-18.8554 0 3.50627
-26.5921 0 -15.6146
-47.8591 0 -6.19545
35.5532 0 1.74683
-0.691357 0 -25.1942
34.5827 0 22.6134
-5.04359 0 -38.2146
-15.4832 0 -5.46695
20.3541 0 8.83439
-7.44518 0 -32.2502
-26.2509 0 45.693
52.4834 0 -51.7036
-28.9579 0 9.71684
-12.0894 0 23.1638
-10.1577 0 21.0492
12.7832 0 -9.50535
7.05007 0 14.056
-55.9568 0 -33.8032
14.8469 0 17.1074
5.99447 0 3.35149
16.4098 0 -18.6694
-18.1011 0 34.9791
13.0012 0 13.456
-94.4259 0 -60.0671
-25.4938 0 -40.4131
-1.55749 0 14.6728
7.44648 0 3.71924
7.61259 0 -2.23782
22.7351 0 37.8586
-10.1461 0 -9.56966
0 0 0
18.4523 0 44.4855
-34.1042 0 -29.8935
9.53458 0 19.1191
-1.34037 0 -16.8932
18.8905 0 -13.5495
-14.9493 0 15.9929
-6.36357 0 -22.7646
4.45962 0 4.29541
0.89274 0 4.94882
4.062 0 5.44429
-6.39466 0 -2.86166
20.7049 0 -26.4899
-16.0379 0 4.629
-20.6638 0 -0.289625
19.7745 0 -23.9109
-1.78165 0 -20.3244
4.18291 0 -13.1569
-5.11371 0 -5.40015
-43.3867 0 -3.45113
5.7703 0 -3.3668
-13.1405 0 -18.5616
0.736618 0 25.4956
14.2951 0 10.733
24.1958 0 19.7772
-4.11977 0 5.09168
-69.6735 0 2.87093
-5.83999 0 -29.9549
-19.3932 0 -0.467269
-4.892 0 -15.3336
14.9639 0 9.43
0.950643 0 34.8394
30.42 0 -19.4806
-23.2198 0 13.266
9.45344 0 11.6383
2.25032 0 -50.9754
21.6823 0 54.3181
33.688 0 -24.6859
6.57404 0 -10.5817
9.02836 0 28.1049
-111.151 0 23.4654
54.1171 0 30.2422
-71.9677 0 -43.7198
69.2984 0 48.7842
-21.4956 0 -92.9318
1.09179 0 25.6481
58.8107 0 -54.5938
33.9962 0 32.339
-25.1758 0 -84.0969
-17.6405 0 -12.2866
-11.3329 0 10.8679
44.4841 0 -9.30986
-13.5207 0 -2.05539
12.0141 0 -47.6604
20.2308 0 59.9462
81.0045 0 33.6949
33.9083 0 35.06
-13.4754 0 8.66864
-8.14309 0 -14.2686
-19.3225 0 38.9631
-25.7779 0 -55.6167
33.3807 0 49.7769
-16.638 0 -0.268828
4.71308 0 11.9647
-8.25141 0 -0.364599
28.4439 0 -59.6002
-86.4216 0 22.2994
10.3274 0 0.467099
-13.415 0 8.98683
26.4885 0 -30.677
0.950047 0 -7.64458
-10.7581 0 -45.5626
1.2657 0 34.3219
6.17286 0 14.6839
-49.6561 0 35.5028
-0.0695642 0 -0.022102
-0.402695 0 20.0878
2.31981 0 3.4944
-36.4071 0 22.6883
1.45684 0 12.417
69.2999 0 8.49924
40.9396 0 -35.7377
-0.203297 0 45.3747
48.2846 0 -103.195
18.6973 0 -5.26316
-2.01019 0 4.2844
-3.85051 0 -4.69093
49.6987 0 48.1846
3.38678 0 -3.33981
1.71514 0 19.2486
6.98926 0 11.3004
29.8826 0 -1.7696
6.93408 0 31.3061
-6.70415 0 -25.153
-28.099 0 -24.8369
-23.252 0 49.3007
-44.1481 0 77.7386
-39.3599 0 4.06413
9.53387 0 -19.0498
-13.7 0 -5.92642
4.88347 0 -15.4342
0.404293 0 -47.8219
9.46041 0 -18.4653
-3.40705 0 -14.6668
39.8332 0 90.7961
-100.926 0 28.224
-30.0985 0 -54.7049
-2.91737 0 -0.666657
-7.94229 0 17.4942
83.0393 0 -52.5399
-63.8484 0 37.6726
25.34 0 18.3986
-0.964154 0 2.90836
-13.3835 0 3.73001
3.53674 0 -9.1069
-10.6164 0 67.0828
-36.4927 0 -40.3914
3.26895 0 -7.56893
4.3126 0 -17.0434
-6.3833 0 6.00279
8.50712 0 7.85526
-0.504056 0 9.28145
27.4228 0 -82.7797
9.73717 0 19.5885
-7.69333 0 14.2483
0.0404447 0 -3.62394
2.75326 0 -5.48989
13.0729 0 -30.6442
0.297704 0 -27.4706
-29.5829 0 42.2068
4.688 0 -0.576984
-3.58244 0 74.893
-13.0772 0 0.787998
-4.33707 0 3.58347
-13.4062 0 9.05376
-14.3082 0 27.8526
7.11434 0 -33.8873
-10.2562 0 1.26183
-10.9066 0 -11.0008
14.9909 0 0.911147
59.7251 0 82.323
-23.5373 0 15.5374
27.3899 0 39.2916
-72.0951 0 86.0984
-16.6192 0 -9.87497
5.7808 0 -57.2666
-7.90898 0 23.448
5.49922 0 21.2256
-15.6018 0 7.7742
2.11025 0 -9.77597
-2.25932 0 2.33045
6.28669 0 -14.0278
6.66993 0 -16.2178
-7.70345 0 -7.52208
89.0163 0 -31.7368
34.9809 0 70.5212
13.0057 0 -6.10522
-3.14241 0 -47.0166
-4.74413 0 -71.3155
30.6087 0 15.3831
-0.91602 0 -1.20854
-30.4269 0 -4.29901
24.8736 0 37.9371
-14.6369 0 33.2992
18.6036 0 26.5187
-35.0167 0 -37.4844
-3.78926 0 0.983432
50.2492 0 94.0757
-3.11569 0 21.1659
7.1602 0 -1.03997
-5.54989 0 4.7744
8.33495 0 8.29842
-3.40499 0 -10.8405
-11.3205 0 14.5828
0.215391 0 10.0493
2.49737 0 -26.3469
53.6392 0 -25.1572
0.193405 0 -3.23406
14.9753 0 9.97042
-3.08505 0 11.6178
40.7944 0 -55.3826
-29.3488 0 -7.31355
40.5114 0 -10.0848
-12.0216 0 71.0004
-17.2669 0 3.04686
-4.5312 0 2.75121
17.4714 0 -4.79946
14.8444 0 0.243622
18.4507 0 -21.1707
-5.31052 0 0.749807
3.34176 0 -16.8581
-6.37548 0 6.69217
4.74825 0 -78.5101
-5.65278 0 -5.2423
-16.9369 0 -0.945715
-18.5405 0 67.6416
-9.30394 0 15.8383
-20.9866 0 -107.177
-8.55159 0 9.50608
-9.36775 0 45.5145
-32.2273 0 -78.828
8.80711 0 3.6843
4.20281 0 -10.9474
-8.37625 0 -7.18055
15.2054 0 -7.27251
4.2014 0 11.9884
-30.5268 0 -6.47793
25.9619 0 4.83639
-2.19437 0 27.0853
-82.8933 0 37.9324
92.1399 0 -58.15
3.98792 0 9.32398
-40.2939 0 22.1679
-44.321 0 25.8209
7.0234 0 -42.7782
-11.7778 0 0.542434
-4.0058 0 -1.85242
32.0071 0 -6.56872
2.55554 0 56.7833
14.042 0 -20.7651
1.80818 0 -23.7479
-27.7965 0 6.28835
6.78074 0 -34.8407
-16.4779 0 -45.4718
3.05624 0 -17.7614
28.2044 0 29.9221
-21.5138 0 -4.13087
-2.27245 0 -11.5967
3.24434 0 -20.8602
-14.1334 0 -13.0003
-18.736 0 68.2501
6.33043 0 -91.3611
-8.54942 0 47.0632
-18.808 0 -38.0564
-22.6599 0 9.15754
-0.69507 0 4.8665
-7.09193 0 4.70004
-4.20076 0 3.75152
0.662331 0 3.62729
-32.7558 0 3.7418
-9.29897 0 -20.7855
-17.3734 0 -9.0776
2.27941 0 6.87939
-0.0249471 0 -12.1059
2.62246 0 13.7456
-8.04321 0 10.0025
3.84802 0 -1.34112
20.2782 0 5.43796
-3.32041 0 38.6981
-21.9281 0 18.8394
3.36117 0 -58.3557
13.9839 0 -34.6467
7.35285 0 -5.92206
8.26563 0 23.2102
-7.47047 0 -4.55076
32.4046 0 21.4077
-1.93742 0 7.75754
1.1735 0 1.73154
7.07199 0 4.8592
-63.3141 0 13.0429
-66.1287 0 1.80499
-3.65689 0 -24.3017
-14.0548 0 19.1134
-23.8551 0 28.2884
3.68845 0 4.33309
-25.514 0 -34.6416
19.2881 0 -37.0692
-86.5386 0 -68.0456
20.4401 0 -55.018
-1.60716 0 -25.7311
120.943 0 42.4619
18.2406 0 -122.182
-23.0474 0 -50.2547
-44.3253 0 -43.1015
-29.1528 0 5.52474
-4.81606 0 4.28168
7.7664 0 7.38494
-22.2543 0 34.4248
31.0796 0 19.0566
-2.80801 0 -77.8681
-25.0094 0 32.8493
41.9692 0 34.5261
27.2694 0 5.42726
6.89629 0 37.7084
1.23147 0 22.2093
13.3312 0 24.2118
-0.733374 0 -0.205086
18.6052 0 13.7197
35.0715 0 38.4366
22.194 0 42.6914
-27.2848 0 -3.526
-16.8341 0 1.68566
-6.49082 0 -2.65192
21.0279 0 -46.1062
-28.8418 0 -9.72051
39.3068 0 6.59074
-53.1699 0 -16.7764
-3.74345 0 3.594
-25.6195 0 -27.7949
22.4138 0 8.43179
-14.6662 0 19.0772
-11.7828 0 -5.04135
1.86787 0 -5.4881
-5.85221 0 10.4798
6.8509 0 10.3833
-73.8043 0 -14.9163
11.1981 0 7.93702
-24.4938 0 3.36423
30.8655 0 -5.58479
-7.64415 0 40.4043
14.9439 0 14.0591
4.8944 0 8.10759
-3.12772 0 6.7428
16.215 0 -12.4193
7.34458 0 5.90039
30.3086 0 -9.30614
111.679 0 -152.535
-0.594963 0 21.4225
-24.9395 0 -41.4903
83.4031 0 12.8399
17.1819 0 -42.3084
17.8136 0 5.46477
-16.3216 0 18.5141
-1.24195 0 -15.1068
-0.810443 0 39.8698
-38.6337 0 44.9854
50.8773 0 -7.71484
74.7336 0 99.8587
-10.7294 0 29.1848
-125.441 0 61.1856
-30.543 0 20.5947
-26.3543 0 70.8022
8.46655 0 -42.1418
60.7865 0 72.9487
-0.848845 0 -17.3199
-8.84568 0 -7.7684
18.8639 0 -8.70492
-14.9442 0 -7.50152
-52.2686 0 54.7873
10.9881 0 -18.881
-18.4948 0 1.88996
5.66578 0 9.43654
21.171 0 -1.05097
55.7448 0 -63.7311
-39.3749 0 -49.0859
-3.93334 0 15.8044
39.3947 0 9.66666
-24.8661 0 -73.876
-10.5704 0 -12.1013
-15.879 0 -6.95463
1.85094 0 14.2738
13.43 0 -20.3081
0.726074 0 19.6584
25.6154 0 -33.8932
-30.8194 0 -36.2577
37.8807 0 31.9182
1.78034 0 -19.41
30.62 0 33.1714
9.30579 0 -15.6254
-5.69085 0 -1.21146
6.60372 0 16.9042
-1.35135 0 -15.5348
13.8095 0 4.63742
68.9708 0 -21.0431
-21.6189 0 56.7244
5.70221 0 -68.516
13.1232 0 12.9887
-5.05226 0 -1.21423
-3.07493 0 0.633604
-6.7866 0 -13.2045
-2.90006 0 -20.595
0.295435 0 -23.218
-21.9265 0 76.7373
-21.527 0 1.7362
-2.35875 0 0.842909
19.606 0 1.41818
-65.7042 0 158.564
28.8148 0 8.41417
2.90793 0 -5.00746
-9.62984 0 -11.6719
7.68992 0 -0.30221
7.93158 0 -12.4352
-2.06536 0 9.48022
5.39695 0 -3.06107
-16.7792 0 38.0964
-30.5298 0 -1.26725
41.8801 0 -18.1657
36.7056 0 -0.334766
-11.2757 0 -0.247938
60.2368 0 -32.1666
-45.2082 0 -16.3335
52.0378 0 -53.3221
-27.3779 0 -10.9302
40.8468 0 14.5999
-57.7637 0 39.1198
31.2678 0 -18.6252
11.0447 0 0.839467
11.8675 0 -13.4761
-34.8219 0 -4.74605
22.6961 0 -84.0355
6.81908 0 -1.14552
-50.154 0 55.2679
42.4663 0 -26.0877
-13.811 0 -2.3132
-30.77 0 -10.2362
22.8335 0 -77.5335
2.67879 0 -55.7734
17.3304 0 38.8134
53.9132 0 47.7415
-21.6853 0 9.92323
5.77976 0 -5.34267
2.16443 0 18.9176
-1.98446 0 -1.45515
-6.01058 0 10.5414
-5.60976 0 6.47465
-27.3923 0 -11.8507
-49.8398 0 29.9695
-32.8762 0 47.4937
15.4374 0 47.7307
-218.95 0 -99.9162
59.57 0 9.4082
14.9417 0 -1.17378
10.892 0 -23.6216
-7.64196 0 -2.74093
-1.00318 0 -21.9771
-2.86311 0 21.0545
-22.5654 0 0.543361
-16.59 0 19.5329
-19.9802 0 24.887
-5.50052 0 -1.71718
-10.2473 0 14.8932
2.65629 0 -7.03129
-38.7795 0 32.9815
-32.2876 0 1.24683
-1.72625 0 -12.0538
11.8116 0 5.00545
2.58582 0 -0.381896
-22.5053 0 5.27834
8.77333 0 -1.18557
1.9857 0 -51.6521
13.1618 0 -3.58634
0.420884 0 0.577266
-18.412 0 -19.5951
47.604 0 -23.076
8.1706 0 5.22514
-86.406 0 -25.3569
71.7335 0 38.5933
-31.0945 0 19.2559
16.2732 0 47.6011
-114.304 0 -28.3449
-89.1169 0 15.1253
-78.9914 0 -37.2347
40.6138 0 41.1486
18.6245 0 19.0665
61.9965 0 -3.54941
-2.77522 0 -13.5257
1.84734 0 -14.8422
-3.66917 0 -6.14542
-3.09481 0 -57.5509
-4.74949 0 21.3698
-36.2674 0 51.2263
-7.40714 0 48.7268
6.68765 0 17.8256
32.8273 0 -50.159
-5.36596 0 -3.99632
0.0776846 0 59.021
16.3943 0 19.4531
-11.5062 0 3.66765
34.8332 0 21.0289
-89.6103 0 -36.3511
24.784 0 17.1973
13.4119 0 12.4918
-2.08188 0 -19.951
-15.6108 0 20.5549
0.271413 0 -3.99169
20.0693 0 -1.88677
14.3265 0 -22.8375
14.6693 0 1.96346
63.7204 0 -9.70753
7.97637 0 -49.5545
-16.203 0 3.7859
-16.3387 0 -5.14335
-10.9302 0 34.7381
-67.8058 0 32.2707
20.9133 0 -17.3751
-20.0849 0 -17.3905
70.0524 0 26.0836
61.3036 0 -26.7153
5.3889 0 -16.9996
57.3643 0 -13.098
1.15315 0 -9.29696
4.8422 0 -0.793373
-5.75975 0 -37.3131
-26.1071 0 -15.3073
-14.6623 0 -26.0999
17.8618 0 4.7435
3.73852 0 -9.43036
15.8993 0 7.27698
-65.2876 0 40.5923
-5.56235 0 -0.94353
-0.284042 0 -18.4382
-7.14189 0 52.1732
1.32326 0 12.1958
6.88267 0 -6.98598
-7.6801 0 0.897764
31.9758 0 -46.0966
-15.9124 0 20.5004
-0.202863 0 59.9052
13.1631 0 -22.9102
-6.19608 0 -25.1672
121.583 0 38.4091
-23.5025 0 12.4357
13.0897 0 11.1645
21.2181 0 -32.5034
-4.97729 0 -6.42602
4.09716 0 8.08496
8.06566 0 14.3316
8.53069 0 -1.36061
-18.535 0 3.05252
14.2657 0 50.1537
10.0614 0 -2.29577
9.64464 0 -15.1919
-61.4271 0 73.8118
-15.4832 0 -17.0324
26.4824 0 0.235189
-9.04746 0 96.3755
-1.64507 0 -7.19634
-1.11147 0 -13.8718
-42.1983 0 -50.7563
-8.39202 0 -58.3639
40.505 0 16.918
-3.48326 0 -33.1242
-11.7634 0 13.791
-2.42375 0 7.8976
4.80583 0 -15.2802
12.459 0 -12.5034
-5.14449 0 42.2355
-50.7551 0 -12.0539
-16.1525 0 -4.59245
-25.1284 0 -15.6087
-8.70203 0 13.406
214.166 0 81.8178
7.7173 0 25.2507
-13.1208 0 -7.03624
-7.93391 0 11.2546
14.1692 0 0.980398
-9.34406 0 -4.26105
-36.8297 0 0.348829
-7.91231 0 32.2073
3.75544 0 24.6654
-15.3682 0 21.1962
3.84273 0 -11.0608
-2.14247 0 3.59915
-21.3489 0 45.508
-152.957 0 4.25522
155.885 0 -12.4843
-6.40752 0 6.50515
-20.1019 0 -9.93757
33.7378 0 37.7422
21.5271 0 10.6969
8.19761 0 5.89478
-39.5368 0 1.99674
-1.58096 0 -76.0352
-0.365822 0 7.44609
-83.7485 0 7.89565
107.192 0 -139.667
-8.57399 0 -48.6978
-85.2671 0 -50.9488
5.74804 0 -11.3737
-32.0031 0 -48.5155
11.1001 0 7.49779
-0.376067 0 -10.6487
-25.5245 0 23.845
-1.88413 0 -8.13705
-7.60414 0 2.6347
-7.39194 0 2.35615
21.7934 0 7.72512
2.21419 0 5.37184
1.24815 0 15.6382
13.9477 0 -22.1781
-23.5552 0 -10.112
-13.2791 0 -7.0744
-5.50215 0 21.8839
55.4591 0 14.4118
21.2131 0 -20.0674
-96.5982 0 -15.7063
6.40145 0 -3.54254
0.18866 0 -31.7393
11.5347 0 45.7846
-0.981153 0 -20.7629
-1.31481 0 -23.246
-24.1619 0 24.9345
-11.3642 0 -1.65874
4.94768 0 6.30201
10.4586 0 -17.6757
-24.5226 0 -42.2098
15.1519 0 8.71907
6.55478 0 -11.8888
5.95862 0 4.27473
24.7342 0 13.0719
-9.87969 0 -13.0304
-6.28268 0 25.7076
7.43791 0 7.70188
13.4784 0 -18.0708
5.48762 0 -10.6545
-22.3638 0 0.97529
6.10158 0 -10.0726
14.3606 0 -16.0616
3.64728 0 -13.9822
9.62761 0 18.8358
-16.802 0 -7.74339
3.19243 0 -5.92012
-3.04885 0 -6.60453
2.99739 0 4.72756
-10.8231 0 -8.48141
9.54578 0 12.9016
7.47026 0 3.99042
4.95216 0 -3.08161
-8.56662 0 13.5918
12.8168 0 3.91591
38.4263 0 -19.6078
-6.69458 0 20.2392
-22.7269 0 -4.10513
-11.6064 0 -11.5748
-53.6636 0 93.3321
-14.6833 0 17.9459
5.28346 0 -7.10298
31.8672 0 1.23284
-18.6103 0 4.12541
-20.5647 0 22.1391
92.989 0 33.7961
-13.3097 0 2.2251
55.0746 0 25.6046
-44.0626 0 33.9809
-2.46697 0 2.70987
-7.47079 0 -53.1124
24.697 0 -4.316
3.23961 0 2.65367
-8.18379 0 0.924085
-9.60014 0 19.7997
-28.0118 0 10.5237
57.2631 0 24.4602
-3.04912 0 23.6301
16.6724 0 -29.5707
57.4093 0 -79.4189
-86.9241 0 -17.9988
11.1965 0 -4.73618
-8.22219 0 1.08143
-54.5938 0 -3.50847
66.8353 0 47.9425
8.99244 0 17.0356
12.7899 0 16.0305
-0.300773 0 -20.9513
-15.6489 0 -0.154911
-4.31061 0 -3.0277
-66.8235 0 19.9192
20.1266 0 3.85426
-29.9727 0 -56.4992
16.6573 0 11.379
-9.8638 0 21.7906
42.3224 0 -4.22509
0.66537 0 -5.46643
-13.4286 0 0.90762
-1.9815 0 -19.3373
-11.3992 0 -8.83304
11.8625 0 17.8739
-14.4535 0 -38.7608
4.06785 0 1.61131
-44.3765 0 67.5587
0.058945 0 1.06382
26.4209 0 -9.9632
-2.80416 0 -1.90707
-4.42432 0 9.90854
-8.26975 0 -4.43372
-0.825715 0 17.8657
-7.87795 0 13.4816
49.7702 0 55.2447
21.3087 0 -25.0993
-17.3424 0 1.97666
14.4887 0 -1.03071
6.29982 0 10.8435
1.09057 0 -21.5068
3.90029 0 4.66131
-1.23773 0 -8.67075
40.0285 0 56.2808
-6.63765 0 0.343499
-24.0612 0 -15.0727
18.741 0 11.7619
-34.222 0 -15.3682
87.1726 0 -0.392465
32.6637 0 -63.2986
-6.95485 0 -18.3963
19.2985 0 -21.3985
-23.3427 0 -6.60981
18.7772 0 44.1757
-2.1491 0 0.781693
-33.3361 0 -22.817
-20.4489 0 3.09969
3.78523 0 2.51444
-8.09527 0 -16.1099
37.4246 0 -28.1187
-75.0872 0 6.80929
-5.33762 0 2.29619
2.79064 0 -5.59735
-8.40228 0 26.814
-48.2034 0 68.085
62.0016 0 27.8099
66.5461 0 14.7258
-57.3877 0 -17.6974
33.8739 0 -1.19742
6.93665 0 11.8199
-21.8281 0 4.5098
28.6293 0 36.9878
86.8045 0 -31.0628
15.5222 0 8.89086
10.3702 0 -0.798583
8.12183 0 34.5874
-36.9505 0 -19.5291
-17.1999 0 -6.23678
4.63714 0 6.90673
-7.1473 0 1.54975
-4.9348 0 -13.6371
-0.194323 0 -12.4149
-5.06045 0 15.7629
18.9614 0 -14.7437
-19.4247 0 5.70283
-12.3321 0 -12.464
26.7856 0 51.2248
12.7148 0 -0.370361
45.0817 0 -63.3886
-1.07404 0 23.1869
7.53683 0 -24.0359
5.42799 0 7.77274
-15.8913 0 -2.86339
-15.3489 0 -4.88442
2.33942 0 -42.8655
17.3749 0 -1.03017
-7.47287 0 10.2883
-98.3784 0 57.1081
-2.34785 0 68.5557
10.3298 0 -0.884199
24.3335 0 3.58129
-8.60518 0 2.29375
21.321 0 17.5126
10.1937 0 -10.2344
-21.45 0 2.63247