# vtk DataFile Version 3.0
SiWiRVisFile
ASCII
DATASET UNSTRUCTURED_GRID
POINTS 1600 DOUBLE
77.4881 100 74.6772
78.5453 100 74.8368
79.6035 100 75.3004
81.3655 100 74.9961
82.4733 100 75.0915
83.5869 100 75.1697
85.0997 100 75.4637
86.2329 100 75.7406
87.2195 100 76.1817
87.7776 100 75.2584
90.1201 100 75.8681
91.2842 100 76.0198
90.3342 100 74.7652
91.3071 100 73.6556
90.7584 100 72.4874
93.3605 100 69.6957
94.3723 100 69.1366
96.3331 100 69.705
95.4311 100 67.1391
98.4377 100 68.5422
103.808 100 58.3923
103.32 100 60.5851
104.138 100 59.8548
105.727 100 59.4129
104.784 100 58.9711
107.321 100 58.5811
109.405 100 57.3247
109.309 100 55.7692
110.617 100 56.697
111.483 100 55.9979
113.01 100 55.9979
113.875 100 56.697
115.183 100 55.7693
115.088 100 57.3247
117.171 100 58.5811
119.709 100 58.9711
118.765 100 59.4129
120.354 100 59.8548
121.172 100 60.5851
120.685 100 58.3923
126.055 100 68.5422
129.061 100 67.1391
128.159 100 69.7051
130.12 100 69.1366
131.132 100 69.6956
133.734 100 72.4874
133.185 100 73.6556
134.158 100 74.7652
133.208 100 76.0198
134.372 100 75.8681
136.715 100 75.2584
137.273 100 76.1817
138.259 100 75.7406
139.393 100 75.4637
140.906 100 75.1696
142.019 100 75.0915
143.127 100 74.9961
144.889 100 75.3004
145.947 100 74.8368
147.004 100 74.6772
77.8304 100 75.6786
78.8203 100 76.0892
80.5915 100 75.8327
81.7162 100 76.0224
82.8144 100 76.1071
84.3523 100 76.2587
85.4988 100 76.5581
86.5282 100 77.0444
87.6121 100 77.2305
88.8763 100 77.1987
90.1638 100 77.12
91.6497 100 77.1747
92.009 100 75.1225
92.5165 100 73.7591
93.2013 100 72.8436
92.062 100 72.4792
94.7869 100 70.2317
97.4156 100 69.3113
98.3737 100 69.7814
100.507 100 68.812
102.892 100 59.4581
100.192 100 64.4766
104.044 100 64.7877
109.552 100 59.3441
106.265 100 58.4039
106.902 100 59.603
108.432 100 59.6221
109.248 100 58.3804
110.318 100 57.9095
111.69 100 57.4049
112.803 100 57.4049
114.174 100 57.9095
115.244 100 58.3804
116.06 100 59.6221
117.591 100 59.603
118.227 100 58.4039
114.941 100 59.3441
120.448 100 64.7877
124.301 100 64.4766
121.601 100 59.4581
123.985 100 68.812
126.119 100 69.7814
127.077 100 69.3113
129.706 100 70.2318
132.43 100 72.4792
131.291 100 72.8436
131.976 100 73.7591
132.483 100 75.1225
132.843 100 77.1747
134.329 100 77.12
135.616 100 77.1987
136.88 100 77.2305
137.964 100 77.0444
138.994 100 76.5581
140.14 100 76.2587
141.678 100 76.1071
142.776 100 76.0224
143.901 100 75.8327
145.672 100 76.0892
146.662 100 75.6786
77.9604 100 76.7335
78.9447 100 77.2256
79.7439 100 76.5419
80.8959 100 76.9204
81.9113 100 77.1186
83.532 100 77.0732
84.6021 100 77.3204
85.6252 100 77.6123
86.8328 100 78.0025
88.0626 100 78.2219
89.2754 100 78.3427
90.5979 100 78.7283
91.6077 100 78.3686
92.3522 100 76.1211
94.2328 100 73.329
94.6469 100 72.2772
95.1089 100 71.2937
96.1734 100 70.8777
97.1825 100 70.3672
99.5789 100 69.674
101.823 100 68.4847
103.362 100 65.6336
105.119 100 65.919
105.952 100 65.1749
106.584 100 62.6788
107.918 100 65.2081
108.214 100 64.15
106.989 100 64.7136
110.552 100 58.9171
111.56 100 58.48
112.933 100 58.48
113.94 100 58.9171
117.504 100 64.7135
116.278 100 64.1502
116.574 100 65.2083
117.908 100 62.6787
118.541 100 65.1746
119.374 100 65.9193
121.131 100 65.6336
122.669 100 68.4847
124.914 100 69.674
127.31 100 70.3672
128.319 100 70.8777
129.383 100 71.2937
129.846 100 72.2772
130.26 100 73.329
132.14 100 76.1211
132.885 100 78.3686
133.894 100 78.7283
135.217 100 78.3427
136.43 100 78.2219
137.66 100 78.0025
138.867 100 77.6123
139.89 100 77.3204
140.96 100 77.0732
142.581 100 77.1186
143.597 100 76.9204
144.748 100 76.5419
145.548 100 77.2256
146.532 100 76.7335
78.0268 100 77.8321
78.9661 100 78.3803
80.0498 100 77.6409
81.161 100 78.1137
82.7211 100 77.889
83.8631 100 78.146
84.8976 100 78.385
86.1133 100 78.8815
87.3043 100 79.0059
88.4511 100 79.2789
89.5698 100 79.4947
90.5627 100 80.0141
91.6124 100 79.4803
93.3306 100 75.3104
93.4791 100 74.2569
95.5046 100 74.4828
95.301 100 73.1788
96.0873 100 72.0011
97.1424 100 71.4449
98.0838 100 70.8619
99.3018 100 70.8045
101.341 100 69.4224
104.074 100 66.4745
104.796 100 67.3254
105.759 100 66.8168
106.568 100 66.0717
108.844 100 66.6755
109.792 100 66.1527
109.25 100 64.21
111.556 100 59.844
112.937 100 59.844
115.242 100 64.2101
114.7 100 66.1526
115.649 100 66.6753
117.925 100 66.0716
118.733 100 66.817
119.697 100 67.3256
120.419 100 66.4744
123.151 100 69.4224
125.191 100 70.8046
126.409 100 70.8619
127.35 100 71.4449
128.405 100 72.0011
129.191 100 73.1787
128.988 100 74.4828
131.013 100 74.2569
131.162 100 75.3104
132.88 100 79.4803
133.93 100 80.0141
134.923 100 79.4946
136.041 100 79.2789
137.188 100 79.0059
138.379 100 78.8815
139.595 100 78.385
140.629 100 78.146
141.771 100 77.889
143.331 100 78.1137
144.443 100 77.6409
145.526 100 78.3803
146.466 100 77.8321
77.9058 100 78.941
78.9545 100 79.523
79.9225 100 78.9173
82.0101 100 78.8158
83.0387 100 79.0003
84.1253 100 79.2092
85.282 100 79.727
86.4322 100 79.9548
87.7481 100 80.0542
88.8783 100 80.32
89.732 100 81.1012
91.5218 100 80.7241
92.6063 100 78.8363
95.1299 100 76.738
94.4335 100 74.813
96.1467 100 75.4496
96.5429 100 74.213
96.4047 100 73.0272
98.0638 100 72.4493
98.9021 100 71.8618
100.48 100 70.2096
103.029 100 70.2145
105.833 100 67.9508
107.142 100 67.6002
107.644 100 66.4837
108.296 100 67.6584
109.486 100 67.848
110.582 100 68.1625
108.982 100 65.3312
111.399 100 61.9237
113.093 100 61.9237
115.51 100 65.3311
113.91 100 68.1624
115.006 100 67.8478
116.196 100 67.6587
116.849 100 66.4836
117.351 100 67.6001
118.66 100 67.9506
121.463 100 70.2145
124.013 100 70.2097
125.59 100 71.8618
126.429 100 72.4493
128.088 100 73.0272
127.95 100 74.213
128.346 100 75.4496
130.059 100 74.813
129.363 100 76.7379
131.886 100 78.8363
132.971 100 80.7241
134.76 100 81.1012
135.614 100 80.32
136.744 100 80.0543
138.06 100 79.9548
139.21 100 79.727
140.367 100 79.2092
141.454 100 79.0003
142.482 100 78.8158
144.57 100 78.9173
145.538 100 79.523
146.587 100 78.941
77.945 100 80.0953
78.9147 100 80.5942
79.96 100 80.0771
80.9468 100 79.2509
81.995 100 79.9408
83.2401 100 80.0692
84.3482 100 80.5381
85.3761 100 80.8436
86.4675 100 81.1039
87.553 100 81.138
88.6154 100 81.3881
90.7546 100 81.5515
92.6649 100 80.9692
93.7321 100 79.1485
94.3412 100 77.7123
95.0743 100 75.6135
97.3665 100 76.0043
97.6534 100 74.6369
98.3181 100 73.6746
99.6436 100 73.1623
100.028 100 71.6754
101.976 100 70.3231
104.132 100 70.4811
105.201 100 70.2976
106.12 100 69.106
107.74 100 68.5866
108.791 100 68.6178
109.809 100 69.1279
111.701 100 68.2366
111.392 100 67.07
113.101 100 67.0698
112.791 100 68.2366
114.683 100 69.1282
115.701 100 68.6177
116.752 100 68.5867
118.372 100 69.1058
119.291 100 70.2976
120.36 100 70.481
122.517 100 70.3231
124.465 100 71.6753
124.849 100 73.1623
126.174 100 73.6746
126.839 100 74.6369
127.126 100 76.0043
129.418 100 75.6135
130.151 100 77.7123
130.76 100 79.1485
131.827 100 80.9693
133.738 100 81.5515
135.877 100 81.3881
136.939 100 81.138
138.025 100 81.1039
139.116 100 80.8436
140.144 100 80.5381
141.252 100 80.0692
142.497 100 79.9408
143.546 100 79.2509
144.532 100 80.0771
145.578 100 80.5942
146.547 100 80.0953
77.8832 100 81.2736
78.7486 100 81.9379
79.9766 100 81.2884
81.0231 100 80.5302
82.221 100 81.1306
83.5132 100 81.1907
84.4037 100 81.6992
85.5764 100 81.8712
87.0153 100 82.0939
88.1285 100 82.4096
89.3244 100 82.2317
91.829 100 81.8015
92.6467 100 82.6891
94.4149 100 80.105
95.7047 100 78.7181
96.0806 100 76.9426
97.2289 100 77.108
98.3997 100 75.4357
99.2127 100 74.4903
100.557 100 72.5992
101.362 100 71.2619
102.444 100 71.2928
104.682 100 71.5246
106.284 100 70.2758
107.465 100 69.7689
108.963 100 69.7823
110.07 100 70.3514
110.985 100 69.3741
109.861 100 71.9465
110.797 100 71.2297
113.697 100 71.2308
114.635 100 71.9468
113.507 100 69.3742
114.422 100 70.3517
115.529 100 69.7823
117.027 100 69.7695
118.209 100 70.2758
119.811 100 71.5245
122.049 100 71.2926
123.131 100 71.2619
123.936 100 72.5992
125.28 100 74.4904
126.093 100 75.4357
127.263 100 77.1081
128.412 100 76.9426
128.788 100 78.7182
130.077 100 80.105
131.846 100 82.6891
132.663 100 81.8015
135.168 100 82.2317
136.364 100 82.4096
137.477 100 82.0939
138.916 100 81.8712
140.089 100 81.6992
140.979 100 81.1907
142.271 100 81.1306
143.469 100 80.5302
144.516 100 81.2884
145.744 100 81.9379
146.609 100 81.2736
77.6847 100 82.4966
78.6175 100 83.0237
79.9013 100 82.3209
80.8298 100 83.0154
81.1822 100 81.7415
82.0929 100 82.6132
83.5961 100 82.5056
84.7175 100 82.9266
86.1006 100 82.7688
87.1804 100 83.4641
88.2538 100 83.859
89.4005 100 83.5602
90.3822 100 82.7813
91.2456 100 83.6965
92.3677 100 83.9804
93.6951 100 82.2061
96.6969 100 78.0106
98.635 100 76.4873
99.9108 100 75.4653
100.412 100 74.3556
101.337 100 73.4497
101.758 100 72.3606
103.583 100 71.4981
105.828 100 71.3863
107.319 100 70.9355
108.699 100 70.8167
107.485 100 72.3646
108.961 100 72.7218
110.101 100 73.1123
110.841 100 72.3279
113.652 100 72.3251
114.391 100 73.1117
115.53 100 72.7216
117.008 100 72.3645
115.794 100 70.8165
117.174 100 70.9354
118.664 100 71.3865
120.91 100 71.498
122.734 100 72.3607
123.155 100 73.4496
124.081 100 74.3558
124.582 100 75.4654
125.858 100 76.4873
127.796 100 78.0106
130.797 100 82.2061
132.125 100 83.9804
133.247 100 83.6965
134.11 100 82.7813
135.092 100 83.5602
136.239 100 83.859
137.312 100 83.4641
138.392 100 82.7688
139.775 100 82.9266
140.896 100 82.5056
142.399 100 82.6132
143.31 100 81.7415
143.663 100 83.0154
144.591 100 82.3209
145.875 100 83.0237
146.808 100 82.4966
77.5711 100 83.6065
78.6735 100 84.1093
79.6351 100 83.467
80.6121 100 84.2879
81.653 100 83.7547
82.7065 100 83.4405
83.9006 100 83.6722
84.7321 100 84.5614
86.0335 100 83.8032
86.8831 100 84.6103
88.1331 100 84.9305
89.2602 100 84.7584
90.4772 100 84.5048
91.5217 100 84.7602
93.4583 100 83.7097
94.7316 100 81.3922
96.8357 100 79.1484
97.6874 100 78.3876
99.7993 100 76.8842
100.818 100 76.18
102.432 100 73.7475
[...]
POINT_DATA 1600
SCALARS mass double
LOOKUP_TABLE default
1
1
1
1
1
1
1
1
1
1
1
1
1
1
1
1
1
1
1
1
1
1
1
1
1
1
1
1
1
1
1
1
1
1
1
1
1
1
1
1
1
1
1
1
1
1
1
1
1
1
1
1
1
1
1
1
1
1
1
1
1
1
1
1
1
1
1
1
1
1
1
1
1
1
1
1
1
1
1
1
1
1
1
1
1
1
1
1
1
1
1
1
1
1
1
1
1
1
1
1
1
1
1
1
1
1
1
1
1
1
1
1
1
1
1
1
1
1
1
1
1
1
1
1
1
1
1
1
1
1
1
1
1
1
1
1
1
1
1
1
1
1
1
1
1
1
1
1
1
1
1
1
1
1
1
1
1
1
1
1
1
1
1
1
1
1
1
1
1
1
1
1
1
1
1
1
1
1
1
1
1
1
1
1
1
1
1
1
1
1
1
1
1
1
1
1
1
1
1
1
1
1
1
1
1
1
1
1
1
1
1
1
1
1
1
1
1
1
1
1
1
1
1
1
1
1
1
1
1
1
1
1
1
1
1
1
1
1
1
1
1
1
1
1
1
1
1
1
1
1
1
1
1
1
1
1
1
1
1
1
1
1
1
1
1
1
1
1
1
1
1
1
1
1
1
1
1
1
1
1
1
1
1
1
1
1
1
1
1
1
1
1
1
1
1
1
1
1
1
1
1
1
1
1
1
1
1
1
1
1
1
1
1
1
1
1
1
1
1
1
1
1
1
1
1
1
1
1
1
1
1
1
1
1
1
1
1
1
1
1
1
1
1
1
1
1
1
1
1
1
1
1
1
1
1
1
1
1
1
1
1
1
1
1
1
1
1
1
1
1
1
1
1
1
1
1
1
1
1
1
1
1
1
1
1
1
1
1
1
1
1
1
1
1
1
1
1
1
1
1
1
1
1
1
1
1
1
1
1
1
1
1
1
1
1
1
1
1
1
1
1
1
1
1
1
1
1
1
1
1
1
1
1
1
1
1
1
1
1
1
1
1
1
1
1
1
1
1
1
1
1
1
1
1
1
1
1
1
1
1
1
1
1
1
1
1
1
1
1
1
1
1
1
1
1
1
1
1
1
1
1
1
1
1
1
1
1
1
1
1
1
1
1
1
1
1
1
1
1
1
1
1
1
1
1
1
1
1
1
1
1
1
1
1
1
1
1
1
1
1
1
1
1
1
1
1
1
1
1
1
1
1
1
1
1
1
1
1
1
1
1
1
1
1
1
1
1
1
1
1
1
1
1
1
1
1
1
1
1
1
1
1
1
1
1
1
1
1
1
1
1
1
1
1
1
1
1
1
1
1
1
1
1
1
1
1
1
1
1
1
1
1
1
1
1
1
1
1
1
1
1
1
1
1
1
1
1
1
1
1
1
1
1
1
1
1
1
1
1
1
1
1
1
1
1
1
1
1
1
1
1
1
1
1
1
1
1
1
1
1
1
1
1
1
1
1
1
1
1
1
1
1
1
1
1
1
1
1
1
1
1
1
1
1
1
1
1
1
1
1
1
1
1
1
1
1
1
1
1
1
1
1
1
1
1
1
1
1
1
1
1
1
1
1
1
1
1
1
1
1
1
1
1
1
1
1
1
1
1
1
1
1
1
1
1
1
1
1
1
1
1
1
1
1
1
1
1
1
1
1
1
1
1
1
1
1
1
1
1
1
1
1
1
1
1
1
1
1
1
1
1
1
1
1
1
1
1
1
1
1
1
1
1
1
1
1
1
1
1
1
1
1
1
1
1
1
1
1
1
1
1
1
1
1
1
1
1
1
1
1
1
1
1
1
1
1
1
1
1
1
1
1
1
1
1
1
1
1
1
1
1
1
1
1
1
1
1
1
1
1
1
1
1
1
1
1
1
1
1
1
1
1
1
1
1
1
1
1
1
1
1
1
1
1
1
1
1
1
1
1
1
1
1
1
1
1
1
1
1
1
1
1
1
1
1
1
1
1
1
1
1
1
1
1
1
1
1
1
1
1
1
1
1
1
1
1
1
1
1
1
1
1
1
1
1
1
1
1
1
1
1
1
1
1
1
1
1
1
1
1
1
1
1
1
1
1
1
1
1
1
1
1
1
1
1
1
1
1
1
1
1
1
1
1
1
1
1
1
1
1
1
1
1
1
1
1
1
1
1
1
1
1
1
1
1
1
1
1
1
1
1
1
1
1
1
1
1
1
1
1
1
1
1
1
1
1
1
1
1
1
1
1
1
1
1
1
1
1
1
1
1
1
1
1
1
1
1
1
1
1
1
1
1
1
1
1
1
1
1
1
1
1
1
1
1
1
1
1
1
1
1
1
1
1
1
1
1
1
1
1
1
1
1
1
1
1
1
1
1
1
1
1
1
1
1
1
1
1
1
1
1
1
1
1
1
1
1
1
1
1
1
1
1
1
1
1
1
1
1
1
1
1
1
1
1
1
1
1
1
1
1
1
1
1
1
1
1
1
1
1
1
1
1
1
1
1
1
1
1
1
1
1
1
1
1
1
1
1
1
1
1
1
1
1
1
1
1
1
1
1
1
1
1
1
1
1
1
1
1
1
1
1
1
1
1
1
1
1
1
1
1
1
1
1
1
1
1
1
1
1
1
1
1
1
1
1
1
1
1
1
1
1
1
1
1
1
1
1
1
1
1
1
1
1
1
1
1
1
1
1
1
1
1
1
1
1
1
1
1
1
1
1
1
1
1
1
1
1
1
1
1
1
1
1
1
1
1
1
1
1
1
1
1
1
1
1
1
1
1
1
1
1
1
1
1
1
1
1
1
1
1
1
1
1
1
1
1
1
1
1
1
1
1
1
1
1
1
1
1
1
1
1
1
1
1
1
1
1
1
1
1
1
1
1
1
1
1
1
1
1
1
1
1
1
1
1
1
1
1
1
1
1
1
1
1
1
1
1
1
1
1
1
1
1
1
1
1
1
1
1
1
1
1
1
1
1
1
1
1
1
1
1
1
1
1
1
1
1
1
1
1
1
1
1
1
1
1
1
1
1
1
1
1
1
1
1
1
1
1
1
1
1
1
1
1
1
1
1
1
1
1
1
1
1
1
1
1
1
1
1
1
1
1
1
1
1
1
1
1
1
1
1
1
1
1
1
1
1
1
1
1
1
1
1
1
1
1
1
1
1
1
1
1
1
1
1
1
1
1
1
1
1
1
1
1
1
1
1
1
1
1
1
1
1
1
1
1
1
1
1
1
1
1
1
1
1
1
1
1
1
1
1
1
1
1
1
1
1
1
1
1
1
1
1
1
1
1
1
1
1
1
1
1
1
1
1
1
1
1
1
1
1
1
1
1
1
1
1
1
1
1
1
1
1
1
1
1
1
1
1
1
1
1
1
1
1
1
1
1
1
1
1
1
1
1
1
1
1
1
1
1
1
1
1
1
1
1
1
1
1
1
1
1
1
1
1
1
1
1
1
1
1
1
1
1
1
1
1
1
1
1
1
1
1
1
1
1
1
1
1
1
1
1
1
1
1
1
1
1
1
1
1
1
1
1
1
1
1
1
1
1
1
1
1
1
1
1
1
1
1
1
1
1
1
1
1
1
1
1
1
1
1
1
1
1
1
1
1
1
1
1
1
1
1
1
1
1
1
1
1
VECTORS force double
-34.9003 0 -34.6723
38.4568 0 15.1057
-2.64515 0 8.61295
-11.7698 0 -8.8541
-13.6178 0 -12.2155
4.47367 0 20.4844
14.4469 0 2.53496
-14.0082 0 -4.29911
7.68196 0 21.4409
6.35944 0 -13.2729
10.0347 0 14.3623
-29.4596 0 1.87697
9.73438 0 -0.496972
9.65316 0 -8.34712
16.5367 0 10.9207
11.3156 0 -1.35232
-1.94139 0 11.9633
-13.7441 0 -1.31548
-0.183399 0 0.345986
-6.96333 0 22.7645
-0.782917 0 14.1354
-10.7161 0 -4.98053
-7.69134 0 -7.76187
57.0768 0 18.7546
-39.881 0 -32.4799
29.9861 0 2.82046
0.101116 0 -41.9473
4.06521 0 7.173
-6.58324 0 23.6553
8.86592 0 7.22061
-8.86993 0 7.21736
6.58681 0 23.6586
-4.06523 0 7.17302
-0.0960547 0 -41.9388
-29.9863 0 2.81941
39.8793 0 -32.479
-57.0752 0 18.7539
7.69094 0 -7.76219
10.7164 0 -4.98029
0.783085 0 14.1353
6.96303 0 22.7654
0.183391 0 0.345977
13.7461 0 -1.32386
1.94191 0 11.9623
-11.3154 0 -1.35194
-16.5363 0 10.9207
-9.65301 0 -8.34697
-9.73423 0 -0.496245
29.4585 0 1.87472
-10.035 0 14.3613
-6.35969 0 -13.2731
-7.68184 0 21.4406
14.0081 0 -4.29921
-14.4466 0 2.53512
-4.47364 0 20.4844
13.6178 0 -12.2155
11.7698 0 -8.8541
2.64513 0 8.61294
-38.4567 0 15.1057
34.9003 0 -34.6724
-15.3215 0 -0.577165
-24.377 0 -36.5628
11.5604 0 -1.37325
-7.98903 0 12.0362
25.8069 0 32.6427
-15.4581 0 -2.22795
-24.0898 0 -25.0792
-27.8096 0 -124.086
19.7663 0 -15.243
-4.19865 0 18.3253
-4.16119 0 -5.92244
-4.09882 0 -8.9642
-5.84671 0 -38.2382
-25.6915 0 -13.1269
-3.57892 0 8.52086
-1.5759 0 19.9166
-0.846459 0 -11.9006
-16.0041 0 -29.6089
32.6267 0 10.2094
-49.4734 0 -21.1999
20.8893 0 7.41379
0 0 0
13.2064 0 -4.69539
12.7575 0 96.6871
-25.6377 0 10.446
-12.4382 0 -4.69434
1.09917 0 -10.8241
-21.8126 0 -62.6564
7.76003 0 -53.8722
-15.661 0 -25.5422
15.6634 0 -25.5276
-7.75851 0 -53.8798
21.815 0 -62.6792
-1.09682 0 -10.8236
12.4389 0 -4.69347
25.6377 0 10.4459
-12.7744 0 96.6949
-13.1982 0 -4.68723
0 0 0
-20.8893 0 7.41375
49.4995 0 -21.2139
-32.6238 0 10.21
16.0035 0 -29.6209
0.846234 0 -11.9008
1.5753 0 19.9175
3.57174 0 8.51679
25.6934 0 -13.1216
5.84858 0 -38.2394
4.09883 0 -8.96411
4.16131 0 -5.92252
4.19858 0 18.3253
-19.7662 0 -15.2424
27.8094 0 -124.087
24.0903 0 -25.0794
15.4578 0 -2.22793
-25.8069 0 32.6428
7.98904 0 12.0362
-11.5604 0 -1.37327
24.377 0 -36.5628
15.3215 0 -0.577064
-17.7911 0 31.5161
-7.03623 0 30.3208
96.0203 0 4.31663
-57.2813 0 -16.5858
59.0517 0 17.1181
-16.6395 0 -11.202
-7.90499 0 -9.52254
43.5395 0 41.9753
21.9798 0 106.206
19.984 0 -3.8051
-10.1917 0 6.40175
-30.6941 0 27.3069
14.6428 0 -24.7755
36.5783 0 38.161
-27.3939 0 15.2162
-4.76391 0 13.1354
22.4749 0 -3.25548
-4.2054 0 -9.6313
-39.6304 0 -25.1447
-44.2623 0 -22.4403
8.0107 0 -28.5873
-11.3115 0 6.24377
-13.4173 0 4.62651
-3.78032 0 -10.0141
0.494108 0 1.01536
6.3221 0 37.5274
-57.6283 0 -0.493657
-30.1401 0 -12.7662
17.8624 0 57.5025
8.70298 0 16.2043
-8.71466 0 16.1873
-17.8474 0 57.5194
29.9548 0 -12.6275
58.0952 0 -0.519525
-5.97302 0 37.4147
-0.493417 0 1.01463
3.71315 0 -10.0059
13.4067 0 4.6102
11.3037 0 6.23867
-8.01924 0 -28.6016
44.2309 0 -22.4211
39.6141 0 -25.1185
4.21212 0 -9.63075
-22.479 0 -3.25687
4.76949 0 13.1399
27.391 0 15.2129
-36.5799 0 38.1644
-14.6428 0 -24.7769
30.6943 0 27.3076
10.1917 0 6.40171
-19.9837 0 -3.8048
-21.9803 0 106.207
-43.5386 0 41.9758
7.90447 0 -9.5227
16.6393 0 -11.2021
-59.0517 0 17.1181
57.2814 0 -16.5858
-96.0203 0 4.31661
7.03622 0 30.3207
17.7911 0 31.5161
-15.2123 0 2.5058
3.85759 0 -0.67431
-12.0106 0 16.0196
-13.9614 0 -19.826
7.66488 0 11.4168
-50.7752 0 -8.33172
21.0223 0 47.4614
-7.46671 0 -8.69414
-13.6964 0 24.5283
32.4275 0 -43.9902
14.4612 0 -29.8864
10.7582 0 2.3831
-9.96331 0 8.88055
-11.6197 0 28.5235
17.4578 0 -39.0683
-24.1621 0 8.60077
24.8657 0 6.7333
-15.8371 0 -27.0379
-7.73797 0 33.7749
81.5325 0 40.1738
-5.46228 0 -13.9402
21.2752 0 72.437
15.1732 0 -3.05141
2.1731 0 6.00762
12.3744 0 6.80525
19.632 0 2.47182
-22.7091 0 5.91376
9.01119 0 -9.55689
50.6521 0 12.4769
1.93133 0 -16.5739
-1.93152 0 -16.5747
-51.1499 0 12.4574
-8.96584 0 -9.55783
22.7295 0 5.9638
-19.6443 0 2.42799
-12.3663 0 6.76053
-2.15262 0 5.99145
-15.1688 0 -3.03747
-21.3041 0 72.4974
5.44703 0 -13.9546
-81.5151 0 40.1711
7.73104 0 33.774
15.8356 0 -27.0307
-24.8668 0 6.73007
24.1878 0 8.60818
-17.4505 0 -39.0665
11.6185 0 28.5191
9.96294 0 8.88129
-10.759 0 2.38327
-14.4608 0 -29.8874
-32.4272 0 -43.9906
13.696 0 24.5286
7.46675 0 -8.69408
-21.0225 0 47.4614
50.7754 0 -8.33196
-7.6649 0 11.4168
13.9616 0 -19.8261
12.0106 0 16.0196
-3.85759 0 -0.674356
15.2122 0 2.50588
21.5792 0 9.37883
-5.54285 0 -29.6933
-8.99273 0 -5.93931
-40.0982 0 -8.50748
38.6286 0 -15.6129
12.8345 0 30.9841
-5.77914 0 -10.0449
5.35874 0 4.99895
-33.4592 0 27.1502
-15.1858 0 11.7894
-10.3971 0 -2.95146
-2.27872 0 -16.307
4.97264 0 10.6144
-199.043 0 -36.2685
-49.7968 0 -55.0502
22.8435 0 -8.1391
25.4551 0 -3.66326
11.282 0 30.5885
-65.429 0 44.9202
61.8413 0 -49.4541
44.3253 0 25.6879
32.3119 0 15.7121
3.10643 0 -2.52541
2.31116 0 -5.4954
7.9547 0 6.38229
0.562775 0 -38.7973
28.5544 0 -42.1905
-4.86772 0 11.7612
22.2715 0 5.48541
2.79939 0 -0.680404
-2.79939 0 -0.680369
-22.3938 0 5.54178
4.81206 0 11.7697
-28.4639 0 -42.2003
-0.616796 0 -39.0243
-7.92224 0 6.35105
-2.31412 0 -5.48726
-3.11418 0 -2.42421
-32.2697 0 15.7182
-44.3053 0 25.6667
-61.9037 0 -49.4682
65.4728 0 44.9485
-11.2765 0 30.5835
-25.4714 0 -3.66639
-22.832 0 -8.13703
49.7979 0 -55.0705
199.335 0 -36.3221
-4.97129 0 10.6144
2.2792 0 -16.3055
10.3981 0 -2.95195
15.1863 0 11.791
33.4588 0 27.148
-5.35864 0 4.99901
5.77902 0 -10.0443
-12.8348 0 30.9845
-38.6284 0 -15.6129
40.0981 0 -8.50743
8.99287 0 -5.93927
5.5426 0 -29.6934
-21.5792 0 9.37878
-2.85366 0 -6.74611
17.3792 0 46.9614
2.25507 0 0.0129581
26.7015 0 20.8361
6.65666 0 1.78217
6.55524 0 17.7068
2.09859 0 -40.2106
11.2033 0 -34.7395
-19.8697 0 0.916344
11.3978 0 -0.404441
7.01891 0 2.47258
-11.3775 0 5.74091
-13.2907 0 7.70914
-1.40127 0 1.57866
8.921 0 -3.67328
34.212 0 50.2631
6.2278 0 -14.4942
-12.0365 0 -10.4666
7.36048 0 1.75377
-26.2757 0 18.9824
-11.5482 0 -29.1423
-43.4601 0 -10.1656
-17.2756 0 18.3498
4.0227 0 13.6511
3.76725 0 4.60508
-55.4376 0 20.6641
15.7748 0 70.9534
33.7171 0 -22.7298
-19.0455 0 -3.06027
-0.990495 0 19.5426
0.991332 0 19.5532
19.0407 0 -3.06511
-33.7411 0 -22.7061
-15.4358 0 71.0038
55.0917 0 20.7669
-3.7661 0 4.607
-3.98004 0 13.6555
17.3084 0 18.3522
43.4785 0 -10.2909
11.5649 0 -29.1445
26.3112 0 18.9997
-7.35749 0 1.76207
12.0267 0 -10.4668
-6.2382 0 -14.4802
-34.2351 0 50.2803
-8.92055 0 -3.67424
1.39984 0 1.57956
13.2911 0 7.70936
11.374 0 5.74118
-7.01993 0 2.47227
-11.3939 0 -0.402631
19.8686 0 0.91645
-11.203 0 -34.7415
-2.09935 0 -40.2107
-6.55528 0 17.7069
-6.6566 0 1.78234
-26.7016 0 20.8361
-2.25494 0 0.012831
-17.3792 0 46.9617
2.85368 0 -6.74604
1.02579 0 -11.3211
21.929 0 -6.54084
6.2988 0 -74.8102
-3.58646 0 5.54875
-4.85294 0 -7.95225
-100.391 0 -12.7115
80.96 0 36.7306
-21.783 0 -2.37452
-5.93023 0 17.1536
-1.05581 0 -0.514497
9.12065 0 9.89851
19.6759 0 5.57017
0.58649 0 6.87919
0.683674 0 4.64374
17.9104 0 -5.46846
209.006 0 45.5188
24.6551 0 -28.0954
7.71831 0 -16.4272
-0.305929 0 2.02226
50.5415 0 13.0054
-29.369 0 5.48079
35.4921 0 24.3292
13.0546 0 -5.17983
30.7564 0 2.53751
-4.48022 0 0.256753
-11.0765 0 -16.7925
-10.6123 0 -15.4826
-17.2117 0 -13.95
-38.4837 0 -8.47687
-12.1077 0 -6.63595
12.1609 0 -8.26258
37.124 0 -8.13242
17.2212 0 -13.9599
10.699 0 -15.5782
11.0348 0 -16.9261
4.46963 0 0.183581
-30.8393 0 2.53162
-13.0385 0 -5.17715
-35.505 0 24.4157
29.3496 0 5.50482
-50.5582 0 12.9637
0.310165 0 2.02318
-7.71902 0 -16.4245
-24.6335 0 -28.0924
-209.326 0 45.5764
-17.904 0 -5.46847
-0.682856 0 4.64382
-0.597792 0 6.87548
-19.6715 0 5.56743
-9.12078 0 9.89846
1.05536 0 -0.514799
5.93014 0 17.1528
21.7824 0 -2.37221
-80.9602 0 36.7312
100.392 0 -12.7117
4.85294 0 -7.95219
3.58644 0 5.5487
-6.29871 0 -74.8097
-21.9289 0 -6.5405
-1.02586 0 -11.3211
-6.99345 0 -29.8147
11.5811 0 8.46976
-9.96852 0 67.9519
-10.0526 0 -7.15051
-4.05738 0 0.124871
-55.6394 0 -53.8576
2.23594 0 8.4694
7.9556 0 -22.2573
35.4484 0 -8.59899
-12.1373 0 -4.48371
10.2533 0 -21.3103
1.69656 0 0.496321
-6.05789 0 -0.0252107
-0.609044 0 -17.8991
-5.42892 0 2.74304
5.97403 0 0.516756
-66.8566 0 28.0142
5.79248 0 31.0228
-3.85993 0 -5.30418
-11.2435 0 -3.10366
-8.53096 0 -5.5314
-2.71282 0 -3.4669
-15.0792 0 -2.85788
-4.02084 0 -11.9171
-3.85033 0 -8.53546
-8.56369 0 25.0445
-0.598795 0 12.9527
12.3845 0 9.51296
-35.5455 0 17.5521
51.0614 0 18.128
-49.4952 0 19.7228
34.8484 0 17.1502
-12.0688 0 9.75076
0.609247 0 12.9197
8.60233 0 25.1889
3.8605 0 -8.47374
4.0558 0 -11.9684
15.0278 0 -2.85333
2.71409 0 -3.48744
8.50954 0 -5.50944
11.2463 0 -3.09902
3.83825 0 -5.26509
-5.78206 0 31.0145
66.8275 0 27.9992
-5.96219 0 0.521505
5.4194 0 2.74474
0.583927 0 -17.8281
6.05768 0 -0.0253224
-1.69623 0 0.494751
-10.254 0 -21.3077
12.1372 0 -4.48359
-35.4484 0 -8.5989
-7.95521 0 -22.257
-2.23597 0 8.46919
55.6384 0 -53.8567
4.05732 0 0.124887
10.0527 0 -7.15055
9.96852 0 67.9514
-11.581 0 8.46933
6.99327 0 -29.8142
23.8234 0 12.1875
-4.15626 0 13.937
18.1572 0 -1.28953
3.54286 0 -9.23717
-8.30514 0 0.936219
68.6307 0 48.2013
-9.14158 0 -3.67136
-19.3839 0 -2.74804
5.71455 0 61.0685
20.7259 0 -13.3292
7.39218 0 -98.9607
-5.88865 0 -13.0957
-38.6183 0 8.0054
7.61271 0 -25.4808
-1.4424 0 -4.4111
-1.15584 0 -13.3483
3.16459 0 -10.7927
31.5689 0 -26.6168
-66.2764 0 -34.672
-53.37 0 7.62809
-14.6137 0 -10.4897
2.16051 0 4.64439
-11.8294 0 -12.6264
4.95896 0 -4.39274
-8.18044 0 12.2107
11.0395 0 -15.9619
-19.053 0 -26.3821
70.3692 0 -66.9975
5.30762 0 -1.97538
-5.77411 0 0.81254
5.48214 0 0.601336
-4.91476 0 -1.75564
-70.8249 0 -67.0345
19.1965 0 -26.7712
-11.0439 0 -15.9163
8.1777 0 12.1936
-4.93061 0 -4.3786
11.818 0 -12.6243
-2.15448 0 4.6438
14.6567 0 -10.5137
53.3762 0 7.55205
66.3486 0 -34.7654
-31.5503 0 -26.6444
-3.16791 0 -10.7853
1.15637 0 -13.3533
1.45222 0 -4.40556
-7.4474 0 -25.7241
38.5533 0 8.02626
5.89055 0 -13.0965
-7.39943 0 -98.9603
-20.7255 0 -13.3277
-5.71429 0 61.0672
19.3839 0 -2.748
9.14154 0 -3.67048
-68.6295 0 48.2005
8.30449 0 0.93603
-3.54263 0 -9.23705
-18.1571 0 -1.28952
4.15616 0 13.9368
-23.8234 0 12.1871
-51.9982 0 -23.6021
23.5394 0 -4.15959
49.0008 0 12.8867
10.0389 0 0.503954
-5.48381 0 1.31843
-7.35952 0 -23.9623
14.358 0 4.5931
14.6522 0 28.8433
-6.86689 0 0.499113
-16.7359 0 12.9829
-40.586 0 39.5386
14.0093 0 34.2143
28.9015 0 14.3256
-21.8328 0 -19.189
-1.47661 0 31.9721
-20.578 0 -2.82389
20.1241 0 0.948993
-28.9891 0 -39.3848
-5.24003 0 -3.13607
-1.79947 0 -7.16201
72.7558 0 54.039
47.9175 0 -4.71723
19.1123 0 -3.62047
-3.42804 0 -0.988561
2.59192 0 3.05074
-49.5317 0 -33.7956
-11.168 0 10.4506
-45.9734 0 67.7291
-5.88808 0 9.22345
6.58816 0 -1.30831
-6.52643 0 -1.34172
5.86754 0 9.21537
46.055 0 67.5285
12.1865 0 11.0757
49.6206 0 -33.7427
-2.65978 0 3.08151
3.48819 0 -0.993748
-19.1449 0 -3.63965
-47.9227 0 -4.71431
-72.7818 0 54.1893
1.77579 0 -7.16583
5.25389 0 -3.11081
28.9563 0 -39.3002
-20.1398 0 0.891448
20.5972 0 -2.82971
1.35037 0 32.1172
21.8498 0 -19.1742
-28.8983 0 14.328
-14.0156 0 34.2067
40.592 0 39.5439
16.7333 0 12.9819
6.86615 0 0.500661
-14.6526 0 28.8437
-14.3584 0 4.59314
7.35934 0 -23.9638
5.48381 0 1.31839
-10.0389 0 0.503995
-49.0005 0 12.8865
-23.5395 0 -4.15964
51.9981 0 -23.6019
-11.1407 0 34.9048
15.76 0 -10.9404
-26.3609 0 -3.07136
-17.3526 0 30.9206
-20.1295 0 -28.4212
13.0782 0 -43.8989
18.9698 0 -38.3874
2.74386 0 -2.53072
15.5356 0 0.277846
4.10483 0 4.22982
-46.1027 0 11.0629
62.2 0 29.0593
7.6416 0 -4.47006
21.6167 0 0.991575
-42.7225 0 52.5984
6.63676 0 -13.7183
10.6993 0 -12.6826
40.5444 0 -36.8978
3.68115 0 55.9287
1.3518 0 25.1034
0.49983 0 -3.15735
0.8248 0 -1.82285
-11.7597 0 -7.68343
8.21497 0 -4.71633
12.0667 0 -3.97329
3.6392 0 -10.2964
47.7233 0 58.4149
-5.41228 0 4.57484
-12.2626 0 -12.6768
-36.0966 0 -0.215153
36.0985 0 -0.219348
12.3626 0 -12.6186
4.6556 0 4.54974
-48.0373 0 58.1774
-3.61938 0 -10.2986
-11.9875 0 -3.86233
-8.20342 0 -4.68117
11.7499 0 -7.75337
-0.808467 0 -1.82154
-0.481894 0 -3.17813
-1.34926 0 25.1176
-3.65422 0 55.8429
-40.5972 0 -36.9553
-10.7 0 -12.6871
-6.61624 0 -13.705
42.7288 0 52.5638
-21.6085 0 1.00942
-7.64203 0 -4.47231
-62.1976 0 29.0572
46.1025 0 11.0649
-4.10473 0 4.22873
-15.535 0 0.275272
-2.74371 0 -2.52863
-18.9673 0 -38.3902
-13.0781 0 -43.8982
20.1289 0 -28.4201
17.3526 0 30.9208
26.3606 0 -3.07112
-15.7601 0 -10.9404
11.1404 0 34.9043
40.6909 0 -15.6466
1.89849 0 -1.00687
16.9153 0 9.57124
-20.3168 0 -3.57018
19.9089 0 -10.2186
-31.7902 0 59.1001
5.71797 0 33.8257
-3.9569 0 25.7522
-19.977 0 -14.7025
-37.8323 0 -7.57144
36.2446 0 18.0201
-9.96208 0 -3.3783
11.3783 0 -12.9475
-0.301602 0 16.1837
-8.48961 0 -35.5153
-50.2221 0 -28.3034
25.3685 0 -25.4889
-26.2959 0 21.0523
0.260482 0 -0.675802
18.7946 0 -0.718613
4.95331 0 7.58203
-22.5126 0 -4.71942
6.30866 0 2.78373
-7.48257 0 8.33
7.69095 0 13.407
-3.54745 0 -2.83632
-5.04764 0 7.25641
12.8272 0 -31.2464
-5.30216 0 4.40535
6.27891 0 -5.30473
-6.42297 0 -5.45044
5.2842 0 4.74462
-13.0901 0 -31.703
5.05291 0 7.24506
3.53311 0 -2.87057
-7.79686 0 13.3535
7.48567 0 8.33637
-6.3915 0 2.795
22.5344 0 -4.68634
-4.92738 0 7.53752
-18.7907 0 -0.694982
-0.271598 0 -0.677998
26.3382 0 21.1227
-25.3481 0 -25.4999
50.2142 0 -28.276
8.48818 0 -35.4958
0.295447 0 16.1623
-11.382 0 -12.9463
9.96502 0 -3.37857
-36.2484 0 18.0218
37.8365 0 -7.57348
19.9771 0 -14.7019
3.95479 0 25.7549
-5.71847 0 33.8253
31.7906 0 59.099
-19.9074 0 -10.218
20.3163 0 -3.57113
-16.9157 0 9.57154
-1.89898 0 -1.00708
-40.6904 0 -15.6461
4.54824 0 3.85516
-21.8773 0 -20.1627
15.9597 0 3.09436
-53.1368 0 3.51247
0.359561 0 21.8825
12.0757 0 -0.110454
5.53491 0 23.3333
-0.70305 0 -35.8137
56.2358 0 21.5512
-5.20831 0 -13.906
10.3555 0 -5.94189
0.838975 0 0.313138
-5.93297 0 20.477
-4.12581 0 10.347
-8.676 0 17.6763
-8.73533 0 56.9529
-34.0242 0 8.78746
69.7066 0 -17.5426
11.922 0 26.7704
-61.3968 0 -51.9565
18.3562 0 6.46392
-12.3206 0 4.65102
-21.1617 0 -24.7983
-3.56988 0 -4.45168
14.6214 0 -13.4864
-6.01132 0 -1.24163
-11.1209 0 1.49364
-19.7468 0 18.7698
2.3207 0 -16.3577
37.1876 0 -30.1944
-36.549 0 -29.856
-2.30229 0 -16.4565
19.9757 0 19.1191
11.1228 0 1.53131
6.04994 0 -1.2373
-14.5965 0 -13.5066
3.55356 0 -4.4244
21.2103 0 -24.8258
12.3053 0 4.65712
-18.3597 0 6.47278
61.1794 0 -52.091
-11.9057 0 26.8277
-69.7026 0 -17.4774
34.0452 0 8.74049
8.72678 0 56.9309
8.66891 0 17.6679
4.12248 0 10.3531
5.93074 0 20.4789
-0.838542 0 0.312478
-10.3526 0 -5.94019
5.20838 0 -13.9076
-56.2345 0 21.5538
0.703176 0 -35.8163
-5.53789 0 23.3333
-12.0757 0 -0.110645
-0.357477 0 21.8821
53.1363 0 3.51258
-15.9601 0 3.09438
21.8779 0 -20.1626
-4.54841 0 3.8551
-2.93135 0 -3.19663
-1.43449 0 4.25962
22.6344 0 -3.55543
-23.4948 0 -41.35
21.4325 0 -8.11941
1.31509 0 -56.9172
-11.8052 0 9.08975
-47.413 0 -23.3211
38.3226 0 3.62065
4.14563 0 18.822
-35.9044 0 -30.1513
4.62822 0 1.45978
-12.0212 0 -33.9517
39.886 0 -48.0387
-8.92394 0 -12.8455
-79.1825 0 -15.168
58.508 0 -53.6594
42.6221 0 -1.54239
-21.5716 0 18.4656
-22.7521 0 70.9619
9.20238 0 -4.33632
4.79991 0 -30.8941
2.57091 0 -0.302837
10.6814 0 30.3796
-36.9649 0 -37.1959
-0.746619 0 -38.9419
-3.36127 0 4.41519
-18.7989 0 -20.5895
5.25898 0 10.9685
-21.054 0 30.3949
20.6158 0 30.4668
-5.30542 0 10.7057
18.88 0 -20.7082
3.31356 0 4.39189
0.75757 0 -39.005
37.0154 0 -37.2018
-10.6714 0 30.383
-2.57094 0 -0.281422
-4.73476 0 -30.7951
-9.20128 0 -4.2966
22.7985 0 71.0313
21.4697 0 18.4537
-42.638 0 -1.53792
-58.399 0 -53.6891
79.2151 0 -15.3043
8.94189 0 -12.8462
-39.9182 0 -48.0882
12.0516 0 -33.9504
-4.62544 0 1.45771
35.9124 0 -30.1541
-4.14782 0 18.8208
-38.3214 0 3.62093
47.4146 0 -23.325
11.8045 0 9.08913
-1.31329 0 -56.9174
-21.4318 0 -8.11912
23.4935 0 -41.3505
-22.6347 0 -3.55585
1.43515 0 4.2601
2.93127 0 -3.19716
-4.59994 0 -26.9566
-28.3941 0 5.13698
23.9137 0 5.30468
-10.491 0 27.3924
49.3389 0 3.29326
-53.1148 0 45.8444
-15.2862 0 -4.53361
-13.0076 0 -24.1326
71.3426 0 40.5474
-5.93341 0 6.84101
-7.10338 0 2.18769
46.7412 0 5.37868
-20.6308 0 29.8404
-52.5353 0 -4.69177
27.6356 0 55.9551
-10.4313 0 -0.959691
-3.5425 0 -3.71933
6.30926 0 7.95637
-14.5429 0 -3.23915
26.7825 0 -5.84667
61.7019 0 -10.9418
-98.8 0 -21.4693
45.1037 0 -23.385
-7.74928 0 7.11216
23.2432 0 -15.1244
21.0817 0 35.493
-3.07871 0 -15.9441
5.17157 0 11.338
-7.00699 0 -3.9775
-6.74067 0 -6.17004
6.82493 0 -6.09785
6.83759 0 -3.89922
-5.15081 0 11.7154
3.06317 0 -15.9266
-21.0444 0 35.565
-23.4267 0 -15.0187
7.65335 0 7.23225
-45.0168 0 -23.3394
98.7625 0 -21.5417
-61.5573 0 -11.2956
-26.6951 0 -5.85021
14.5452 0 -3.23397
-6.30338 0 7.96361
3.53036 0 -3.72075
10.4237 0 -0.961452