# vtk DataFile Version 3.0
SiWiRVisFile
ASCII
DATASET UNSTRUCTURED_GRID
POINTS 1600 DOUBLE
75.4885 100 71.8695
73.5778 100 71.8523
74.4779 100 72.3676
76.6355 100 72.1815
77.7959 100 72.6123
78.6799 100 73.3271
79.6365 100 72.823
80.7668 100 73.4404
81.8599 100 73.822
80.7049 100 72.2996
93.3683 100 61.7797
92.3126 100 62.0948
93.1417 100 62.8956
91.3096 100 61.5812
80.8052 100 63.5315
89.255 100 56.1122
91.541 100 54.4346
89.552 100 52.0486
84.081 100 43.3476
94.1095 100 47.754
107.909 100 21.5865
108.333 100 20.3599
107.277 100 19.6814
107.981 100 18.0104
106.754 100 22.2798
111.508 100 21.5067
110.771 100 12.4866
115.782 100 13.3256
110.172 100 16.0166
110.142 100 14.9947
111.601 100 14.5624
113.108 100 14.5712
110.679 100 14.014
113.828 100 13.7647
114.463 100 18.6412
116.605 100 22.7449
116.456 100 17.6336
115.495 100 20.9328
114.354 100 20.9204
115.133 100 21.9367
133.829 100 49.6971
140.411 100 43.3476
131.979 100 51.8994
133.382 100 53.2518
135.556 100 51.7767
135.26 100 66.1027
133.963 100 62.1442
133.727 100 64.3466
132.61 100 61.7958
132.667 100 62.9158
142.897 100 72.4312
141.893 100 73.8846
142.936 100 73.5517
143.883 100 72.9613
146.077 100 73.1801
147.053 100 72.7339
148.053 100 72.3692
150.395 100 72.5369
151.797 100 71.82
149.367 100 71.8855
72.3768 100 72.3196
73.5783 100 72.9707
75.6408 100 72.8707
76.7578 100 73.2589
77.7098 100 73.8312
79.6558 100 73.9402
80.9735 100 74.4814
81.8955 100 75.045
82.8603 100 74.4023
83.9693 100 75.0074
84.8491 100 74.3808
92.6782 100 60.9898
91.5696 100 62.963
91.4326 100 59.1434
90.1656 100 55.2246
91.2798 100 60.1953
91.2371 100 53.1901
90.5872 100 52.2296
92.2957 100 51.8376
95.7931 100 49.2556
106.982 100 20.8662
94.9551 100 29.7719
107.266 100 34.9898
108.498 100 19.2339
109.458 100 20.2678
112.131 100 20.6057
112.934 100 19.8697
111.858 100 19.4245
105.677 100 7.26205
111.1 100 15.5482
112.274 100 15.3985
119.387 100 7.3616
113.8 100 17.5466
115.667 100 16.6411
115.292 100 19.7743
115.624 100 18.5211
114.256 100 16.608
119.486 100 35.5083
129.577 100 29.7124
116.633 100 21.271
128.104 100 49.024
129.807 100 49.4009
132.816 100 50.204
134.922 100 52.9548
133.407 100 61.1444
133.949 100 54.6791
132.146 100 57.8807
133.833 100 63.1676
131.468 100 61.771
139.559 100 74.6427
140.63 100 74.2917
141.572 100 74.9552
142.697 100 74.6449
143.745 100 74.2469
144.769 100 73.5576
146.951 100 73.9162
147.924 100 73.4325
148.988 100 72.96
151.401 100 73.2264
152.6 100 72.7852
72.5885 100 73.5686
73.7827 100 74.0701
74.6441 100 73.4799
75.8736 100 74.0855
76.8412 100 74.7538
78.6099 100 74.5321
79.8496 100 75.148
80.843 100 75.5986
81.8671 100 76.1041
82.8834 100 75.5208
84.9822 100 75.5791
84.1219 100 77.087
86.1959 100 76.3762
92.2943 100 59.9016
90.317 100 58.7111
92.5186 100 56.2884
92.8005 100 54.0884
92.7126 100 52.9166
93.8728 100 50.4412
94.7305 100 48.6682
95.6947 100 48.1259
104.698 100 35.479
106.18 100 35.5187
106.895 100 37.0305
94.5897 100 32.8561
107.622 100 36.1982
107.426 100 33.63
106.522 100 34.2579
111.748 100 16.4292
112.538 100 17.5032
113.02 100 16.4093
113.695 100 15.5359
121.587 100 36.0181
116.012 100 32.1467
118.157 100 35.179
120.486 100 35.8879
118.837 100 36.4075
119.917 100 36.8535
121.205 100 37.0122
127.028 100 48.3729
134.156 100 50.8763
130.812 100 50.8924
134.234 100 51.9216
133.062 100 51.9599
132.672 100 55.6824
132.195 100 56.6664
132.263 100 60.6628
138.754 100 75.6101
139.508 100 76.4411
140.284 100 75.6131
141.312 100 76.049
142.432 100 75.8677
143.564 100 75.3668
144.839 100 74.7486
145.864 100 74.2767
147.924 100 74.4965
148.985 100 74.0617
150.2 100 73.6211
151.015 100 74.2876
152.414 100 73.8037
72.6122 100 74.8406
73.7539 100 75.1779
74.8304 100 74.6647
75.8266 100 75.1759
77.8239 100 75.1574
78.8584 100 75.5828
79.9553 100 76.4006
80.9635 100 76.7076
82.9968 100 76.6922
83.8738 100 76.0864
83.9471 100 78.4598
85.1733 100 76.7091
86.654 100 75.2212
92.2205 100 58.2167
91.1233 100 58.0092
90.0395 100 57.5105
92.6597 100 55.2564
91.1918 100 55.577
93.7594 100 53.4635
93.314 100 51.9686
93.7863 100 49.4203
96.6539 100 48.5878
105.38 100 34.6843
104.252 100 39.5542
105.675 100 36.641
106.035 100 37.7389
108.261 100 38.4845
109.836 100 37.9094
108.274 100 34.651
112.995 100 18.4292
114.88 100 17.5916
112.776 100 30.9157
115.902 100 37.4941
116.934 100 37.0628
118.109 100 37.1962
120.144 100 38.1248
119.09 100 37.5278
119.371 100 34.256
126.847 100 49.4867
129.746 100 51.2614
130.209 100 52.2344
132.702 100 54.3008
131.682 100 54.715
131.574 100 55.7863
131.114 100 57.0355
132.891 100 59.648
131.633 100 59.5933
138.439 100 74.59
139.407 100 77.49
140.475 100 77.1434
141.577 100 77.2083
142.624 100 77.0736
143.514 100 76.4386
144.515 100 75.9004
145.689 100 75.3762
146.866 100 74.9974
148.8 100 75.3138
149.838 100 74.7122
150.8 100 75.3466
151.959 100 74.8401
72.8865 100 75.8571
73.8358 100 76.4654
74.7251 100 75.7575
76.8591 100 75.8336
77.8893 100 76.2277
78.846 100 76.937
79.7452 100 77.539
80.8567 100 77.7987
81.9233 100 77.3023
82.8649 100 77.7622
84.0102 100 79.5613
87.1986 100 77.5108
87.2752 100 76.2629
94.645 100 55.8757
91.5726 100 56.8274
90.5733 100 56.415
95.14 100 54.8417
94.7628 100 53.8507
94.2583 100 51.4523
95.5583 100 52.078
95.1603 100 50.8938
102.532 100 44.9329
104.699 100 38.614
107.48 100 39.2863
107.006 100 38.2768
108.531 100 39.6639
109.299 100 38.9758
110.613 100 38.6509
107.906 100 37.3384
110.553 100 21.0174
109.482 100 21.2992
116.994 100 35.382
113.157 100 36.4484
114.735 100 38.4889
117.011 100 38.1741
117.669 100 36.1508
118.033 100 38.472
118.157 100 39.553
123.752 100 45.2085
129.335 100 48.4461
129.012 100 50.2617
129.039 100 52.4744
132.355 100 52.9267
130.502 100 54.6054
129.488 100 55.1276
130.601 100 59.1481
131.055 100 58.1868
138.463 100 76.7368
138.727 100 78.7559
140.597 100 79.8441
140.983 100 78.119
142.449 100 78.0865
143.7 100 77.4062
144.661 100 76.9796
145.72 100 76.6041
146.752 100 76.1895
147.811 100 75.8318
149.87 100 75.9025
150.824 100 76.4409
151.947 100 75.9873
72.841 100 76.9293
73.9614 100 77.5998
74.8323 100 76.8399
75.9025 100 76.381
76.9256 100 76.9434
77.8272 100 77.5561
78.7979 100 78.2768
79.8263 100 78.6169
80.964 100 79.0086
81.9362 100 78.4701
82.9177 100 78.8649
84.9411 100 77.9396
86.9322 100 78.5838
86.4612 100 74.0728
89.2356 100 75.3603
93.5889 100 55.735
95.8771 100 55.705
96.9209 100 55.6147
96.2894 100 54.657
94.5613 100 52.7213
96.3127 100 51.1618
97.5341 100 49.1633
102.671 100 43.8858
103.537 100 42.0959
106.069 100 38.9165
106.455 100 39.9333
107.89 100 41.783
109.56 100 40.0961
111.736 100 38.7113
110.835 100 37.292
114.681 100 37.4411
113.288 100 37.7119
116.023 100 38.6375
114.95 100 39.6466
117.007 100 39.3948
119.047 100 38.6049
119.335 100 39.7146
123.91 100 44.1833
126.448 100 50.6839
127.84 100 50.1492
128.526 100 51.2978
131.467 100 53.5434
128.434 100 55.5179
129.304 100 56.1548
130.443 100 55.8664
137.77 100 75.5637
141.247 100 70.0851
138.362 100 79.7857
140.013 100 78.6156
142.459 100 79.1176
143.476 100 78.5334
144.386 100 79.1744
144.501 100 78.0729
145.495 100 77.6608
146.52 100 77.3016
147.594 100 76.8606
148.86 100 76.3489
149.857 100 77.058
150.797 100 77.555
151.813 100 77.1305
71.4669 100 77.5111
72.9161 100 78.0255
74.9919 100 78.039
75.912 100 77.4094
76.8803 100 78.0904
77.0997 100 80.4739
78.4746 100 79.5696
80.1679 100 79.7096
81.2469 100 80.1276
82.1549 100 79.6335
86.2611 100 79.7099
86.0284 100 77.5897
87.9193 100 79.8797
87.8508 100 75.3698
94.0459 100 56.813
93.7771 100 54.6648
95.373 100 56.7112
98.1642 100 55.5722
95.952 100 53.3998
96.6831 100 52.5292
96.6519 100 50.0464
100.274 100 50.5831
103.736 100 44.1879
105.341 100 39.8342
110.386 100 43.1374
108.684 100 40.8964
104.508 100 44.9355
109.887 100 41.2847
104.153 100 46.2606
105.644 100 44.8713
120.012 100 46.2215
117.776 100 45.7368
115.042 100 40.6707
116.581 100 44.7661
117.21 100 42.155
115.966 100 40.0619
117.171 100 40.4858
121.266 100 45.7722
123.201 100 46.293
127.412 100 51.3617
127.879 100 52.326
129.78 100 53.3082
127.789 100 54.4411
128.132 100 56.6577
130.039 100 57.2004
130.01 100 58.2832
137.346 100 74.4904
131.308 100 76.5822
139.48 100 79.6384
142.456 100 80.2705
143.467 100 79.6558
144.453 100 80.3792
145.358 100 79.7769
146.242 100 79.0104
147.275 100 79.5567
147.712 100 78.0051
148.675 100 77.3612
149.591 100 78.0801
151.59 100 78.3706
152.868 100 77.6897
72.0255 100 78.6804
73.0087 100 79.2992
73.9976 100 78.8386
75.0331 100 79.4179
75.9538 100 78.6203
75.963 100 79.9566
76.8902 100 79.2425
79.2953 100 80.4067
80.5308 100 81.1963
81.5893 100 81.1773
82.584 100 80.6558
82.4995 100 81.9828
85.6276 100 78.7405
85.1757 100 79.8769
83.3865 100 82.7728
90.1104 100 78.0795
94.9189 100 58.9287
96.5682 100 56.6604
98.5069 100 54.0006
97.4682 100 54.4845
97.6122 100 53.3431
97.7048 100 51.7522
103.5 100 45.2523
104.515 100 40.6813
107.658 100 40.3461
109.565 100 42.2716
106.98 100 41.1023
103.749 100 47.2058
105.704 100 46.8173
107.473 100 47.615
118.879 100 45.705
120.9 100 46.8965
121.752 100 47.5749
118.499 100 42.545
117.491 100 43.2778
118.033 100 41.4623
118.547 100 40.51
122.62 100 45.3839
125.582 100 51.363
128.514 100 53.3559
127.329 100 53.4294
126.06 100 53.3046
126.798 100 56.2005
129.033 100 57.4277
131.068 100 75.4165
140.926 100 82.0561
140.546 100 81.0334
139.447 100 80.7389
141.692 100 81.0773
142.193 100 82.1239
142.904 100 81.1861
145.555 100 80.8177
146.54 100 81.3237
146.424 100 80.2548
148.428 100 79.9981
148.579 100 78.6366
149.377 100 79.3248
150.587 100 78.9524
151.345 100 79.6061
152.547 100 78.9673
71.8118 100 79.8584
72.8155 100 80.3688
73.9259 100 80.0672
75.0908 100 80.6145
76.2737 100 82.1785
73.9099 100 83.1823
76.2501 100 81.0616
78.1773 100 80.8587
79.4311 100 81.5199
78.3798 100 82.2617
80.3974 100 82.3481
80.7309 100 83.4336
81.6199 100 82.6726
82.2996 100 83.5738
84.0513 100 80.6978
87.9183 100 78.4933
96.2607 100 58.8881
95.969 100 57.5973
99.2552 100 55.2978
99.9919 100 52.0329
97.8956 100 50.5054
[...]
POINT_DATA 1600
SCALARS mass double
LOOKUP_TABLE default
1
1
1
1
1
1
1
1
1
1
1
1
1
1
1
1
1
1
1
1
1
1
1
1
1
1
1
1
1
1
1
1
1
1
1
1
1
1
1
1
1
1
1
1
1
1
1
1
1
1
1
1
1
1
1
1
1
1
1
1
1
1
1
1
1
1
1
1
1
1
1
1
1
1
1
1
1
1
1
1
1
1
1
1
1
1
1
1
1
1
1
1
1
1
1
1
1
1
1
1
1
1
1
1
1
1
1
1
1
1
1
1
1
1
1
1
1
1
1
1
1
1
1
1
1
1
1
1
1
1
1
1
1
1
1
1
1
1
1
1
1
1
1
1
1
1
1
1
1
1
1
1
1
1
1
1
1
1
1
1
1
1
1
1
1
1
1
1
1
1
1
1
1
1
1
1
1
1
1
1
1
1
1
1
1
1
1
1
1
1
1
1
1
1
1
1
1
1
1
1
1
1
1
1
1
1
1
1
1
1
1
1
1
1
1
1
1
1
1
1
1
1
1
1
1
1
1
1
1
1
1
1
1
1
1
1
1
1
1
1
1
1
1
1
1
1
1
1
1
1
1
1
1
1
1
1
1
1
1
1
1
1
1
1
1
1
1
1
1
1
1
1
1
1
1
1
1
1
1
1
1
1
1
1
1
1
1
1
1
1
1
1
1
1
1
1
1
1
1
1
1
1
1
1
1
1
1
1
1
1
1
1
1
1
1
1
1
1
1
1
1
1
1
1
1
1
1
1
1
1
1
1
1
1
1
1
1
1
1
1
1
1
1
1
1
1
1
1
1
1
1
1
1
1
1
1
1
1
1
1
1
1
1
1
1
1
1
1
1
1
1
1
1
1
1
1
1
1
1
1
1
1
1
1
1
1
1
1
1
1
1
1
1
1
1
1
1
1
1
1
1
1
1
1
1
1
1
1
1
1
1
1
1
1
1
1
1
1
1
1
1
1
1
1
1
1
1
1
1
1
1
1
1
1
1
1
1
1
1
1
1
1
1
1
1
1
1
1
1
1
1
1
1
1
1
1
1
1
1
1
1
1
1
1
1
1
1
1
1
1
1
1
1
1
1
1
1
1
1
1
1
1
1
1
1
1
1
1
1
1
1
1
1
1
1
1
1
1
1
1
1
1
1
1
1
1
1
1
1
1
1
1
1
1
1
1
1
1
1
1
1
1
1
1
1
1
1
1
1
1
1
1
1
1
1
1
1
1
1
1
1
1
1
1
1
1
1
1
1
1
1
1
1
1
1
1
1
1
1
1
1
1
1
1
1
1
1
1
1
1
1
1
1
1
1
1
1
1
1
1
1
1
1
1
1
1
1
1
1
1
1
1
1
1
1
1
1
1
1
1
1
1
1
1
1
1
1
1
1
1
1
1
1
1
1
1
1
1
1
1
1
1
1
1
1
1
1
1
1
1
1
1
1
1
1
1
1
1
1
1
1
1
1
1
1
1
1
1
1
1
1
1
1
1
1
1
1
1
1
1
1
1
1
1
1
1
1
1
1
1
1
1
1
1
1
1
1
1
1
1
1
1
1
1
1
1
1
1
1
1
1
1
1
1
1
1
1
1
1
1
1
1
1
1
1
1
1
1
1
1
1
1
1
1
1
1
1
1
1
1
1
1
1
1
1
1
1
1
1
1
1
1
1
1
1
1
1
1
1
1
1
1
1
1
1
1
1
1
1
1
1
1
1
1
1
1
1
1
1
1
1
1
1
1
1
1
1
1
1
1
1
1
1
1
1
1
1
1
1
1
1
1
1
1
1
1
1
1
1
1
1
1
1
1
1
1
1
1
1
1
1
1
1
1
1
1
1
1
1
1
1
1
1
1
1
1
1
1
1
1
1
1
1
1
1
1
1
1
1
1
1
1
1
1
1
1
1
1
1
1
1
1
1
1
1
1
1
1
1
1
1
1
1
1
1
1
1
1
1
1
1
1
1
1
1
1
1
1
1
1
1
1
1
1
1
1
1
1
1
1
1
1
1
1
1
1
1
1
1
1
1
1
1
1
1
1
1
1
1
1
1
1
1
1
1
1
1
1
1
1
1
1
1
1
1
1
1
1
1
1
1
1
1
1
1
1
1
1
1
1
1
1
1
1
1
1
1
1
1
1
1
1
1
1
1
1
1
1
1
1
1
1
1
1
1
1
1
1
1
1
1
1
1
1
1
1
1
1
1
1
1
1
1
1
1
1
1
1
1
1
1
1
1
1
1
1
1
1
1
1
1
1
1
1
1
1
1
1
1
1
1
1
1
1
1
1
1
1
1
1
1
1
1
1
1
1
1
1
1
1
1
1
1
1
1
1
1
1
1
1
1
1
1
1
1
1
1
1
1
1
1
1
1
1
1
1
1
1
1
1
1
1
1
1
1
1
1
1
1
1
1
1
1
1
1
1
1
1
1
1
1
1
1
1
1
1
1
1
1
1
1
1
1
1
1
1
1
1
1
1
1
1
1
1
1
1
1
1
1
1
1
1
1
1
1
1
1
1
1
1
1
1
1
1
1
1
1
1
1
1
1
1
1
1
1
1
1
1
1
1
1
1
1
1
1
1
1
1
1
1
1
1
1
1
1
1
1
1
1
1
1
1
1
1
1
1
1
1
1
1
1
1
1
1
1
1
1
1
1
1
1
1
1
1
1
1
1
1
1
1
1
1
1
1
1
1
1
1
1
1
1
1
1
1
1
1
1
1
1
1
1
1
1
1
1
1
1
1
1
1
1
1
1
1
1
1
1
1
1
1
1
1
1
1
1
1
1
1
1
1
1
1
1
1
1
1
1
1
1
1
1
1
1
1
1
1
1
1
1
1
1
1
1
1
1
1
1
1
1
1
1
1
1
1
1
1
1
1
1
1
1
1
1
1
1
1
1
1
1
1
1
1
1
1
1
1
1
1
1
1
1
1
1
1
1
1
1
1
1
1
1
1
1
1
1
1
1
1
1
1
1
1
1
1
1
1
1
1
1
1
1
1
1
1
1
1
1
1
1
1
1
1
1
1
1
1
1
1
1
1
1
1
1
1
1
1
1
1
1
1
1
1
1
1
1
1
1
1
1
1
1
1
1
1
1
1
1
1
1
1
1
1
1
1
1
1
1
1
1
1
1
1
1
1
1
1
1
1
1
1
1
1
1
1
1
1
1
1
1
1
1
1
1
1
1
1
1
1
1
1
1
1
1
1
1
1
1
1
1
1
1
1
1
1
1
1
1
1
1
1
1
1
1
1
1
1
1
1
1
1
1
1
1
1
1
1
1
1
1
1
1
1
1
1
1
1
1
1
1
1
1
1
1
1
1
1
1
1
1
1
1
1
1
1
1
1
1
1
1
1
1
1
1
1
1
1
1
1
1
1
1
1
1
1
1
1
1
1
1
1
1
1
1
1
1
1
1
1
1
1
1
1
1
1
1
1
1
1
1
1
1
1
1
1
1
1
1
1
1
1
1
1
1
1
1
1
1
1
1
1
1
1
1
1
1
1
1
1
1
1
1
1
1
1
1
1
1
1
1
1
1
1
1
1
1
1
1
1
1
1
1
1
1
1
1
1
1
1
1
1
1
1
1
1
1
1
1
1
1
1
1
1
1
1
1
1
1
1
1
1
VECTORS force double
-6.29243 0 -86.1336
-57.8806 0 -22.7065
73.9962 0 26.0324
-10.255 0 -5.77586
-18.2695 0 17.4905
-4.27926 0 17.0711
33.0569 0 -7.04499
-20.746 0 -31.4284
3.11372 0 10.4614
-9.27542 0 11.8984
33.345 0 33.9974
-4.1238 0 1.07002
-8.83954 0 -9.50607
9.4966 0 -3.41448
0 0 0
20.9094 0 -2.79957
9.73912 0 3.47692
-39.7955 0 -6.62099
0 0 0
-0.0385294 0 -1.06182
-7.83082 0 -13.4938
-13.1684 0 6.59377
19.0417 0 13.3423
3.43152 0 11.5244
9.8229 0 -12.6362
13.9734 0 17.2564
-0.153259 0 5.54204
-0.876201 0 0.196831
-40.5447 0 100.637
-1.29222 0 -79.7106
8.60437 0 -7.55879
-23.6743 0 23.5122
-17.0556 0 -12.7654
11.8957 0 -10.9235
1.13045 0 -7.19392
-2.74015 0 -8.29527
-20.3445 0 -0.572235
13.432 0 -31.6004
13.6298 0 2.82931
-10.5773 0 15.7851
0.767705 0 13.206
0 0 0
-23.9685 0 -12.1178
16.1955 0 5.69565
-17.7739 0 8.44972
-0.208406 0 -0.238786
-7.76031 0 -66.4462
-0.0240096 0 -11.8191
-49.8251 0 34.4427
14.5638 0 -2.38082
-1.22728 0 2.436
-19.8333 0 1.24126
-11.7803 0 -18.0667
-20.669 0 -2.32253
-24.3135 0 15.8219
-7.37368 0 11.9635
32.6752 0 -36.5962
-0.956931 0 -4.38223
1.75944 0 18.4768
0.863365 0 15.1866
21.7687 0 12.2957
-18.0055 0 13.8529
16.2568 0 102.728
-9.31599 0 18.2629
-10.4593 0 17.4327
3.64663 0 14.7984
-29.2169 0 30.2427
3.44829 0 -37.3748
-2.73177 0 7.42015
-28.0957 0 -0.501839
18.5687 0 2.08043
-42.1807 0 -29.6597
6.61513 0 -12.5235
3.46672 0 -48.1884
-14.6827 0 12.9483
-36.2345 0 48.4447
6.7006 0 2.87918
47.3532 0 13.2187
-69.1809 0 0.306659
-13.8844 0 8.1219
15.9441 0 -1.20497
0 0 0
-0.594456 0 51.7585
-9.85083 0 4.81025
-0.79204 0 -62.7342
-9.36964 0 -9.97951
4.74942 0 -18.5587
14.0369 0 11.157
0 0 0
52.7905 0 -30.2092
21.3457 0 29.2457
0 0 0
-55.7788 0 52.511
-9.44307 0 20.026
-4.0139 0 -2.92429
-10.7222 0 -6.6586
15.4564 0 -47.2451
-29.678 0 -17.1303
0 0 0
-14.0261 0 4.09873
-7.72607 0 5.44059
4.54753 0 35.2802
6.95813 0 5.16018
-7.36727 0 -17.9784
40.1034 0 -44.3379
-15.4459 0 -6.75506
-12.0178 0 -14.7531
-20.5639 0 68.8716
13.2493 0 -6.10977
0.823118 0 20.7674
12.3139 0 11.8997
5.54159 0 7.99407
-5.29332 0 20.5658
41.2945 0 9.41698
29.5431 0 36.9635
-16.3893 0 -18.5017
27.8027 0 -6.38749
11.409 0 0.256348
-1.65141 0 -4.46569
-9.00664 0 -62.0296
17.1058 0 0.895622
-45.0855 0 29.2344
47.9507 0 -21.99
-2.17431 0 -24.6822
-19.202 0 -50.651
94.6398 0 -101.31
5.68129 0 -20.7484
16.426 0 6.48321
25.3235 0 34.5829
14.6104 0 17.4684
-11.1286 0 0.638919
4.41506 0 76.9066
5.48806 0 -3.83846
31.7035 0 -8.96536
-9.1323 0 10.0648
12.3504 0 37.1186
-5.30768 0 1.98187
2.73052 0 9.58531
8.40677 0 63.839
0.866617 0 21.5177
-24.0907 0 -12.0708
-19.2737 0 38.2285
2.62323 0 -5.67624
-46.569 0 -1.07191
0 0 0
-1.33239 0 -10.2178
11.1481 0 13.5523
-53.0132 0 -14.1469
24.8892 0 7.76273
-15.9404 0 -73.8056
-10.423 0 13.6652
0.239962 0 2.62178
13.0944 0 -25.8178
0 0 0
13.9387 0 -3.19951
21.3419 0 17.3175
8.73535 0 -13.2303
22.06 0 -14.4622
-31.4625 0 20.2929
10.6612 0 9.00888
-12.7001 0 -51.8557
-2.31254 0 7.7736
7.58209 0 56.0151
24.2408 0 14.506
6.57477 0 -27.0413
-0.578295 0 38.8124
8.11846 0 2.90754
172.647 0 31.8413
30.0254 0 -40.3218
-6.65809 0 -13.8588
2.97342 0 17.7192
13.1092 0 -4.51369
-15.3077 0 -31.0793
-47.8404 0 -23.3215
5.39359 0 -1.02117
2.64233 0 46.1534
-24.8208 0 -2.90811
-40.5413 0 -14.4742
17.986 0 2.27221
-25.9798 0 57.7633
8.40985 0 -50.4814
8.97153 0 4.80906
-11.1314 0 -25.9521
-7.63719 0 39.2351
-69.1153 0 52.2838
-9.28517 0 43.3855
-46.8807 0 -21.2125
22.9027 0 15.1687
-32.3927 0 -8.9818
17.8376 0 -66.3871
-1.85794 0 -23.0192
-19.6528 0 17.7285
7.92012 0 15.7407
-9.10388 0 6.54316
14.1299 0 -25.986
19.2078 0 0.818364
-35.5802 0 -89.973
61.3745 0 -34.2902
-41.2713 0 5.52977
61.0402 0 24.115
5.07073 0 -82.1779
1.56717 0 -10.2915
46.8749 0 -32.1883
-17.7083 0 55.0825
16.1938 0 -4.90279
-8.69835 0 5.22039
-4.77479 0 0.491323
-16.0873 0 -8.49493
17.996 0 -15.0679
37.0085 0 57.903
29.1089 0 -5.17015
0 0 0
-5.37221 0 15.4059
18.1569 0 -9.01772
-84.2134 0 10.7292
-20.8445 0 -15.1463
37.3954 0 20.4417
-2.64632 0 16.3044
15.4871 0 13.7197
-30.9296 0 -20.7111
-0.894675 0 21.4515
14.5399 0 -10.8097
-11.8639 0 -21.1596
-29.5691 0 10.9612
21.462 0 -7.074
-17.2246 0 11.7183
16.0915 0 4.45561
-3.51253 0 -14.7171
-8.44798 0 47.8879
-15.4637 0 -21.5303
-13.6656 0 -12.0107
37.3783 0 -76.8656
-18.8534 0 -139.876
25.1749 0 -14.6961
37.395 0 43.2784
-5.58193 0 26.9048
11.475 0 -75.7367
26.2705 0 24.1333
22.8657 0 -4.37444
-3.03214 0 11.6595
9.40097 0 20.8065
-16.6491 0 -22.7367
11.6107 0 -4.65989
-2.34685 0 -1.70035
12.8724 0 42.277
-21.293 0 -15.6409
14.9984 0 -10.6786
4.94932 0 26.45
-39.6282 0 -24.1581
45.5171 0 39.1983
1.3078 0 5.69129
-2.92104 0 -12.3709
1.85801 0 28.7908
38.211 0 -14.7104
-2.81248 0 18.318
-62.6173 0 34.0862
10.5777 0 34.5457
10.3762 0 -23.9594
5.11437 0 37.4251
0.401065 0 -3.18949
33.6256 0 -8.87946
-73.0867 0 14.6633
38.6905 0 -38.802
-20.0535 0 -14.409
17.873 0 -13.835
-46.2157 0 40.6662
56.045 0 -50.5007
6.64151 0 10.2505
26.6863 0 21.911
-20.5738 0 -19.0828
-11.3403 0 61.3023
-39.3424 0 -54.4823
2.45833 0 12.7286
17.2479 0 49.7841
-19.8572 0 -7.34965
51.2373 0 82.8859
-50.0649 0 -26.4257
-19.1935 0 -45.1819
-19.6547 0 67.3737
-22.1593 0 -19.7546
-1.27429 0 3.07421
34.5934 0 -84.5946
7.7529 0 -6.26205
9.63671 0 7.59535
20.1352 0 -44.5834
13.2491 0 62.3973
55.7137 0 -40.7798
-19.8233 0 -4.22445
9.14715 0 -16.0854
-9.43973 0 6.1214
12.7592 0 13.9292
-19.415 0 -8.68194
-53.7053 0 146.645
14.3528 0 -28.306
-30.5392 0 -53.5885
-21.6554 0 -27.2045
8.27955 0 -51.4306
-27.2573 0 -7.79487
23.0571 0 17.1162
-22.5847 0 0.351865
-3.99091 0 25.9166
-5.67644 0 -2.39012
42.2771 0 40.9477
-16.1283 0 -73.1521
-7.20289 0 -10.001
40.5357 0 -8.81127
-18.2422 0 -18.5124
35.0473 0 26.2272
20.4699 0 -24.7335
-31.1616 0 -23.8436
46.6618 0 15.5815
-24.6763 0 -47.4333
-166.379 0 24.928
-1.37795 0 10.6267
-15.3189 0 11.8306
6.22912 0 42.6046
-52.4465 0 10.9441
64.0735 0 -20.0387
1.51915 0 -6.20349
12.767 0 -20.1066
-5.46079 0 5.95725
24.5714 0 38.9787
3.76312 0 -33.9763
17.1678 0 1.24847
-9.90086 0 -16.8719
26.9645 0 25.1508
6.04004 0 -17.1177
-4.99948 0 11.3508
-1.62228 0 -3.56546
-7.62919 0 16.4515
2.49542 0 -40.0197
7.88904 0 -10.8169
-17.4678 0 15.2304
-10.499 0 -85.9665
-5.52187 0 -23.8765
76.7745 0 36.3056
-17.5939 0 -16.695
6.86524 0 -53.7107
24.1496 0 -9.39639
-1.23305 0 9.34675
9.36879 0 7.75453
-13.2415 0 25.8462
-24.5732 0 -10.9564
10.9671 0 82.5097
-10.0769 0 -0.551607
-148.366 0 -10.5161
0 0 0
-10.9756 0 22.2693
-26.154 0 6.7415
11.8256 0 67.1239
-8.6541 0 -5.64517
57.7473 0 -7.37692
19.3802 0 41.7745
16.9605 0 31.0886
52.0404 0 14.859
18.99 0 61.0165
3.98537 0 -0.227081
-33.0406 0 -62.6682
10.8024 0 32.7486
3.91463 0 1.30257
15.8359 0 9.66228
12.4118 0 19.1634
-10.4008 0 5.23542
-0.721818 0 78.0157
2.61599 0 -12.0988
42.7824 0 -54.5546
5.02058 0 5.84431
-18.2824 0 22.0249
-63.7473 0 24.232
29.4685 0 -33.8939
10.0569 0 -17.5693
1.14795 0 -1.76383
-1.67938 0 -0.505367
18.8759 0 -17.1808
2.11786 0 -8.39786
10.1306 0 -22.7458
-10.0959 0 -20.7164
-8.26513 0 -12.6176
-10.1087 0 5.03216
2.7214 0 -7.60272
7.28597 0 -7.54932
-122.743 0 24.9686
-8.11403 0 -29.0785
-4.77423 0 1.00067
-7.67375 0 -8.92291
2.11693 0 -9.77796
49.2713 0 11.2525
1.56845 0 -67.1578
12.1941 0 -73.0238
2.10421 0 -14.0738
-1.6704 0 -19.605
-2.80123 0 7.27464
2.57501 0 70.0136
5.23438 0 1.28228
-3.9216 0 19.4781
34.5842 0 -10.7435
13.2489 0 6.51694
1.46083 0 15.8127
13.5634 0 16.5812
-22.5331 0 -28.5079
30.1621 0 32.8882
-3.41162 0 1.79753
12.4496 0 4.58295
22.8937 0 -39.6979
50.8688 0 -41.2434
-74.3333 0 -26.5246
-4.81116 0 7.31915
-16.6889 0 -7.90929
-0.184757 0 -16.3454
-25.3606 0 -87.7176
-53.2762 0 37.9007
-12.7817 0 4.05297
15.5409 0 -45.0699
0.242762 0 15.6253
12.3648 0 -9.48409
-21.2402 0 -24.6066
-10.6651 0 76.1285
-6.05985 0 45.8482
-3.18194 0 -0.282995
-19.9893 0 7.94536
-2.04238 0 8.39817
-15.4822 0 -13.0283
20.2538 0 -12.7412
-27.5195 0 -15.3517
-33.1548 0 18.7509
45.8027 0 -1.0033
-3.10654 0 11.0701
-11.6645 0 1.07898
-38.4529 0 -7.08715
42.6268 0 17.4476
1.46066 0 9.62478
-0.0930136 0 -8.57016
35.2051 0 32.0551
-19.0778 0 -2.18959
-7.28554 0 -7.0716
1.5426 0 77.2512
19.5413 0 4.69843
-4.61241 0 -1.843
11.3337 0 12.6307
-4.97924 0 13.8755
-16.3555 0 -6.68712
-2.23691 0 -5.46035
41.3281 0 62.3277
-32.8167 0 -85.8115
56.7448 0 -36.9879
-13.8036 0 56.2231
-65.6178 0 54.0554
53.5788 0 56.9865
20.6289 0 3.16512
-1.57221 0 2.92019
19.2992 0 6.07348
-1.81043 0 -31.5746
-0.167247 0 77.575
-15.8404 0 -15.3849
7.28284 0 -13.3536
16.5951 0 1.58009
36.6707 0 52.3258
-15.6047 0 -5.23776
11.6492 0 12.964
-47.0564 0 60.4891
-4.61127 0 -24.378
30.6548 0 20.4403
-8.40962 0 2.91066
-70.2 0 5.47095
-13.84 0 35.899
28.5856 0 10.7171
-3.36351 0 -22.074
91.8095 0 -63.8762
-2.25477 0 18.1015
23.6888 0 -46.2801
26.7124 0 82.0316
-63.188 0 53.3583
10.1918 0 23.7254
30.5259 0 -60.6568
-0.509971 0 5.33622
-7.49743 0 -16.262
44.9872 0 28.8069
-101.815 0 -78.9607
47.6504 0 39.9806
-7.35716 0 -14.574
15.0226 0 -12.9865
17.9507 0 -16.0135
12.5279 0 -45.9427
-21.5332 0 -31.8261
7.32136 0 -0.503721
13.8609 0 -3.85552
-55.3638 0 31.6484
30.5809 0 -18.4995
-1.73271 0 9.6011
-10.5651 0 -11.8742
0.811211 0 -2.91588
-3.29422 0 -16.4142
-17.7095 0 0.150576
0.666521 0 -19.6621
2.03568 0 -7.69942
118.689 0 -14.8418
47.5934 0 -92.7991
24.3858 0 40.7366
-0.827316 0 -24.4259
-15.4127 0 -5.86535
-10.8197 0 6.325
15.6886 0 1.27678
-11.1638 0 -2.9864
-0.656754 0 74.1017
-6.68106 0 3.22246
38.3799 0 -6.6173
0.524583 0 57.7822
1.13989 0 22.1707
-0.412273 0 -24.8376
-1.07613 0 13.602
2.15649 0 7.38334
5.4643 0 -27.4001
-1.40413 0 -2.59388
-15.694 0 -9.97632
-35.3384 0 8.64112
40.8673 0 -22.2462
2.21086 0 -4.65957
13.218 0 -67.3322
-20.9642 0 -15.4127
44.2878 0 11.0562
-10.4656 0 -154.268
13.5817 0 -2.68431
-4.65107 0 27.6903
9.8751 0 -13.8503
14.3653 0 1.11014
7.612 0 21.3164
151.233 0 -51.7779
-30.446 0 43.4454
5.78017 0 2.85038
-37.3273 0 -13.1513
15.1258 0 -42.3136
6.21017 0 32.2485
5.53339 0 14.2134
-52.5275 0 -20.5249
-13.0752 0 23.9291
17.6586 0 -39.6999
-15.3863 0 13.3698
25.725 0 -28.1203
-62.7943 0 36.1444
77.162 0 1.79173
4.21632 0 25.0824
-35.0382 0 43.6403
-28.634 0 1.50683
-19.8935 0 -31.213
52.2611 0 25.3748
-27.4663 0 36.9831
12.2589 0 1.76976
-6.09468 0 -120.858
27.7075 0 25.3007
9.15903 0 -14.4164
-10.2344 0 -5.9111
-1.10846 0 7.68055
22.3167 0 -38.9458
89.8469 0 22.2582
28.8631 0 -9.58113
-22.2699 0 -30.8173
4.35069 0 9.07017
-8.4951 0 -16.0336
-20.1892 0 22.2726
10.4515 0 -10.6459
-18.1246 0 -28.775
-14.6144 0 5.5943
-3.44276 0 0.437029
5.48992 0 -21.2232
-6.64742 0 -0.79166
138.111 0 -23.9178
-63.2018 0 2.42548
-59.537 0 -55.3716
-7.94235 0 -19.6748
-5.68636 0 -14.9355
6.6143 0 -12.5516
-25.4762 0 -33.3152
-19.4051 0 27.0834
7.41779 0 -1.49789
-2.47764 0 2.12682
-0.456855 0 9.65621
-72.7996 0 -80.1335
-8.55503 0 3.63422
25.0694 0 120.944
83.2642 0 79.268
10.5394 0 5.82483
-21.9171 0 8.00687
16.4961 0 -0.689475
-6.55136 0 6.8177
9.5681 0 2.43768
-30.3992 0 -18.6537
41.5905 0 -5.31429
-2.55414 0 4.71439
-43.9098 0 57.4645
55.5411 0 -33.8529
-13.199 0 13.9412
55.7537 0 60.996
-16.4511 0 -35.7231
-4.78017 0 36.8113
-9.15236 0 5.12058
38.6327 0 3.04385
33.0481 0 -51.1179
-59.7048 0 -43.5181
66.3961 0 25.5671
-1.71993 0 2.85506
-9.22374 0 -0.190431
2.25313 0 4.79834
8.62822 0 9.34063
2.15516 0 16.0181
-7.89517 0 -16.8329
9.97829 0 49.7505
-32.0342 0 18.1897
-2.11731 0 96.493
-22.0966 0 -27.2357
-20.7083 0 -4.7891
70.1831 0 1.37338
-74.9806 0 5.09443
5.82202 0 -28.4852
-11.0624 0 0.0525314
-43.2857 0 3.38167
-4.90149 0 8.92083
3.76672 0 8.42591
26.2985 0 -42.5599
-21.2855 0 -61.9743
-47.5441 0 87.7864
-33.638 0 -9.62323
10.6165 0 -53.242
14.5137 0 40.3361
19.306 0 16.1406
-17.7935 0 -2.13798
0.897188 0 3.94164
7.85353 0 9.68214
-7.30469 0 10.6346
-0.996361 0 -9.53601
-15.6411 0 3.95832
-29.7549 0 48.7585
-6.80653 0 2.19092
18.9005 0 33.1005
-60.0776 0 5.86745
28.5813 0 9.2032
-23.7505 0 35.1559
-74.798 0 -33.6339
-7.88695 0 5.88945
1.58517 0 -6.91827
0.197627 0 8.00962
10.2889 0 -2.53471
-78.4871 0 -50.0168
1.96168 0 -38.7459
15.427 0 7.72956
8.22901 0 14.2494
-159.997 0 54.3745
-8.82036 0 -10.0954
6.00549 0 -22.201
-26.5026 0 -31.8999
7.76511 0 12.2729
-27.7746 0 -3.25034
44.5964 0 38.8097
12.8806 0 -5.70024
11.7513 0 -51.7515
-32.9621 0 32.0465
48.5131 0 18.5855
-7.13569 0 12.7944
15.9839 0 -1.47462
11.2181 0 -3.82723
4.65322 0 42.4136
23.7451 0 -32.8624
18.989 0 3.6377
33.0769 0 0.394277
-5.32947 0 -9.31269
11.4316 0 0.9171
13.2803 0 -11.983
16.507 0 11.7065
9.00368 0 12.6378
18.13 0 12.5032
-5.90799 0 -24.2724
-44.1676 0 32.8441
8.44759 0 -24.3824
-9.58444 0 47.1714
-3.66991 0 -15.7975
-20.5939 0 48.9708
-46.7468 0 -71.8444
10.1103 0 -8.25111
12.9621 0 11.9636
-0.934915 0 -6.35749
22.0289 0 20.6432
-6.95821 0 -20.898
-2.40766 0 -8.65212
-3.51454 0 55.7506
6.80181 0 11.7101
4.54195 0 -9.06729
0.963405 0 -13.8864
-28.9928 0 -11.3661
-16.7314 0 -0.611078
44.7835 0 -10.5866
30.4728 0 27.0781
-13.3693 0 -56.2991
2.03487 0 14.17
16.0659 0 -2.85432
-9.6807 0 11.8372
11.4334 0 0.454888
-15.2223 0 -12.4081
19.5841 0 0.641006
-3.11396 0 16.0281
38.3878 0 -25.8393
-24.5026 0 -10.2842
20.3478 0 13.9324
-14.5193 0 7.67817
-27.8168 0 -2.98091
-18.047 0 107.299
-13.7731 0 -25.226
40.6153 0 54.5009
4.35574 0 28.2689
-2.28537 0 -0.200618
20.9412 0 -30.8999
5.45432 0 -36.9782
-3.41661 0 -17.6785
-30.9256 0 -18.1386
-17.4463 0 -4.06696
8.53461 0 -6.58966
16.2246 0 7.23066
-57.0252 0 16.6295
-51.9329 0 -26.6081
13.3369 0 7.84749
30.5666 0 -37.5236
-2.44852 0 2.3064
-17.2019 0 -2.21968
-1.64288 0 10.8695
13.1269 0 9.05131
-28.7535 0 60.8763
9.24913 0 -1.64411
2.29515 0 0.145366
-8.91053 0 -26.7091
12.5162 0 4.10547
8.9566 0 -1.34789
-13.9573 0 -7.50153
27.4433 0 7.9321
15.0845 0 -5.74288
-14.6836 0 15.494
-13.0866 0 3.12727
-4.59032 0 -6.58452
-26.1797 0 13.3182
-24.4297 0 23.6187
-3.8475 0 2.02646
-92.8752 0 -108.729
-11.7327 0 -2.00808
4.6867 0 6.18219
-27.6842 0 -19.0565
3.69831 0 24.356
28.8071 0 47.4043
-4.70663 0 -8.93727
-18.4192 0 68.0791
-13.3574 0 8.0395
-7.4334 0 19.3939
9.64239 0 -5.13075
-2.51156 0 -17.9045
16.5761 0 0.0203177
11.2317 0 9.65184
5.61593 0 -8.47989
0.801138 0 -6.26236
30.0957 0 -27.2991
7.03651 0 3.38233
-17.6134 0 -6.29332
4.01625 0 0.0515315
-7.99622 0 -18.5326
-2.60574 0 11.9893
12.6754 0 4.06742
-1.51034 0 9.516
6.05468 0 22.6151
3.49495 0 -6.19272
79.6755 0 66.4711
14.1757 0 1.10072
-82.5041 0 85.186
29.1683 0 -21.3307
57.0125 0 -49.2683
-52.3962 0 -8.77137
-0.0753428 0 5.66753
-91.7295 0 -11.9218
6.96752 0 22.1465
-1.89888 0 -39.6092
2.45593 0 13.3398
-15.7373 0 16.6613
17.1715 0 -1.98238
-11.5861 0 -39.8288
-17.1597 0 8.74827
42.2244 0 -66.2074
10.5638 0 -2.89706
2.29285 0 1.66494
-6.31529 0 -25.1772
-21.1393 0 2.84703
28.1089 0 -3.76243
-44.2957 0 -2.45307
-17.2827 0 5.39022
-0.848475 0 31.1185
9.65074 0 -17.1091
6.66294 0 -35.1105
-29.8721 0 -32.9451
57.4736 0 -71.5684
6.49773 0 12.9784
11.6059 0 22.4056
93.0675 0 49.7802
21.5813 0 -5.4752
4.03387 0 10.7511
35.6183 0 4.45827
1.01461 0 -1.176
74.4778 0 -88.0855
17.6015 0 -4.38135
14.555 0 11.7918
0.470988 0 -13.1215
-5.36346 0 -50.199
7.21418 0 -2.11966
-27.9354 0 -65.7306
47.9081 0 -41.4217
4.20132 0 64.0213
-0.636257 0 -1.49323
-5.70908 0 4.16557
16.8196 0 5.52681
104.317 0 -29.1293
-8.25975 0 13.9272
-9.43726 0 10.3722
5.28464 0 15.718
-29.5832 0 -9.21215
-1.17935 0 7.74149
-16.6663 0 -6.22178
18.5934 0 15.3376
11.5538 0 92.4169
0.397703 0 -25.3289
-24.32 0 39.8981
-73.5514 0 59.6799
54.9668 0 -69.2074
-4.45178 0 -1.6972
-1.60734 0 -18.6458
-4.7466 0 -0.669248
1.94246 0 7.15817
-9.24212 0 1.43436
18.4142 0 1.60057
14.4644 0 -50.5686
21.5985 0 35.1342
-36.6792 0 -9.13141
35.3366 0 68.2066
-13.0729 0 54.7799
-0.686077 0 -33.3899
-8.31504 0 -3.76563
-16.7778 0 29.9088
-9.81504 0 4.98975
-14.616 0 58.7879
16.0551 0 17.0957
32.51 0 -30.139
-20.4618 0 30.8516
12.9213 0 14.4018
-70.2658 0 -80.0714
23.6818 0 -46.1771
21.9082 0 41.7373
-15.1185 0 42.0639
-50.1227 0 -55.5851
10.5961 0 9.24904
4.50575 0 -3.48199
-2.89006 0 -9.48094
-16.7284 0 13.7856
17.5715 0 14.3566
13.7156 0 -24.0696
-62.6593 0 28.0514
-9.04865 0 -5.90397
50.4967 0 -9.35281
-2.6092 0 -18.4498
23.8085 0 14.7134
-17.9642 0 2.87277
-2.49938 0 -0.997005
32.6992 0 -12.0548
-3.78312 0 -32.5447
-3.27206 0 0.0680842
1.79373 0 -5.54488
-16.2297 0 6.92594
0 0 0
6.34533 0 -2.67234
4.70663 0 8.93727
-1.48829 0 -16.232
-15.3313 0 10.7052
-46.8488 0 -8.62416
-25.2707 0 19.5182
-7.17162 0 -19.0842
9.04564 0 -7.87893
0.134964 0 24.1378
-16.1749 0 -7.86793
2.11399 0 -7.07645
19.325 0 2.30934
-4.11079 0 -22.1448
0.919023 0 -5.91294
1.15476 0 -12.8174
-11.2625 0 34.6264
-9.785 0 0.881108
45.1156 0 50.2685
-43.1103 0 -46.7487
-2.71252 0 9.60475
1.17095 0 -4.35857
80.905 0 6.7101
-9.72125 0 -14.7481
-42.2986 0 -45.4181
-63.7149 0 60.5615