# vtk DataFile Version 3.0
SiWiRVisFile
ASCII
DATASET UNSTRUCTURED_GRID
POINTS 1600 DOUBLE
79.1647 100 76.2043
80.2691 100 76.5513
81.3309 100 76.4558
82.4522 100 76.4741
83.5894 100 76.4551
84.726 100 76.4408
85.8612 100 76.4296
86.9941 100 76.4217
88.1199 100 76.4165
89.2377 100 76.4122
90.3557 100 76.409
91.4786 100 76.4083
92.6029 100 76.4083
93.7259 100 76.4082
94.8483 100 76.4078
95.9706 100 76.4079
97.093 100 76.408
98.2154 100 76.408
99.3379 100 76.4079
100.46 100 76.4079
101.583 100 76.4079
102.705 100 76.4079
103.828 100 76.4079
104.95 100 76.4079
106.073 100 76.4079
107.195 100 76.4079
108.318 100 76.4079
109.44 100 76.4079
110.563 100 76.4079
111.685 100 76.4079
112.807 100 76.4079
113.93 100 76.4079
115.052 100 76.4079
116.175 100 76.4079
117.297 100 76.4079
118.42 100 76.4079
119.542 100 76.4079
120.665 100 76.4079
121.787 100 76.4079
122.91 100 76.4079
124.032 100 76.4079
125.155 100 76.4079
126.277 100 76.408
127.399 100 76.408
128.522 100 76.4079
129.644 100 76.4078
130.766 100 76.4082
131.889 100 76.4083
133.014 100 76.4083
134.137 100 76.409
135.255 100 76.4122
136.373 100 76.4165
137.498 100 76.4217
138.631 100 76.4296
139.766 100 76.4408
140.903 100 76.4551
142.04 100 76.4741
143.161 100 76.4558
144.223 100 76.5513
145.328 100 76.2043
79.5117 100 77.3088
80.6199 100 77.6595
81.7248 100 77.4862
82.8191 100 77.5202
83.9027 100 77.5162
84.9814 100 77.5155
86.0591 100 77.516
87.1326 100 77.5146
88.2121 100 77.5131
89.2966 100 77.5121
90.3716 100 77.5105
91.4741 100 77.5101
92.596 100 77.5103
93.7199 100 77.5102
94.8438 100 77.5098
95.9679 100 77.5099
97.0919 100 77.5101
98.215 100 77.51
99.3377 100 77.5099
100.46 100 77.5099
101.583 100 77.5099
102.705 100 77.5099
103.828 100 77.5099
104.95 100 77.5099
106.073 100 77.5099
107.195 100 77.5099
108.318 100 77.5099
109.44 100 77.5099
110.563 100 77.5099
111.685 100 77.5099
112.807 100 77.5099
113.93 100 77.5099
115.052 100 77.5099
116.175 100 77.5099
117.297 100 77.5099
118.42 100 77.5099
119.542 100 77.5099
120.665 100 77.5099
121.787 100 77.5099
122.91 100 77.5099
124.032 100 77.5099
125.155 100 77.5099
126.277 100 77.51
127.401 100 77.5101
128.525 100 77.5099
129.649 100 77.5098
130.772 100 77.5102
131.896 100 77.5103
133.018 100 77.5101
134.121 100 77.5105
135.196 100 77.5121
136.28 100 77.5131
137.36 100 77.5146
138.433 100 77.516
139.511 100 77.5155
140.59 100 77.5162
141.673 100 77.5202
142.768 100 77.4862
143.873 100 77.6595
144.981 100 77.3088
79.4161 100 78.3706
80.4466 100 78.7645
81.5407 100 78.5803
82.6509 100 78.6162
83.7574 100 78.6133
84.8658 100 78.6131
85.9702 100 78.6129
87.0742 100 78.6119
88.1837 100 78.6111
89.2835 100 78.6105
90.3796 100 78.6099
91.4923 100 78.6102
92.6135 100 78.6104
93.7336 100 78.6105
94.8535 100 78.6102
95.9743 100 78.6104
97.0956 100 78.6105
98.2172 100 78.6104
99.3389 100 78.6102
100.461 100 78.6102
101.583 100 78.6103
102.705 100 78.6104
103.828 100 78.6104
104.95 100 78.6104
106.073 100 78.6104
107.195 100 78.6104
108.318 100 78.6104
109.44 100 78.6104
110.563 100 78.6104
111.685 100 78.6104
112.807 100 78.6104
113.93 100 78.6104
115.052 100 78.6104
116.175 100 78.6104
117.297 100 78.6104
118.42 100 78.6104
119.542 100 78.6104
120.665 100 78.6104
121.787 100 78.6104
122.909 100 78.6103
124.031 100 78.6102
125.154 100 78.6102
126.275 100 78.6104
127.397 100 78.6105
128.518 100 78.6104
129.639 100 78.6102
130.759 100 78.6105
131.879 100 78.6104
133 100 78.6102
134.113 100 78.6099
135.209 100 78.6105
136.309 100 78.6111
137.418 100 78.6119
138.522 100 78.6129
139.627 100 78.6131
140.735 100 78.6133
141.841 100 78.6162
142.952 100 78.5803
144.046 100 78.7645
145.076 100 78.3706
79.4345 100 79.4918
80.4805 100 79.8589
81.5765 100 79.6905
82.6813 100 79.7211
83.78 100 79.7172
84.8796 100 79.7151
85.9759 100 79.7133
87.0715 100 79.7115
88.1742 100 79.7105
89.2698 100 79.7103
90.3622 100 79.7101
91.4744 100 79.7102
92.5969 100 79.7102
93.7206 100 79.7104
94.844 100 79.7101
95.9673 100 79.7102
97.0905 100 79.7103
98.2138 100 79.7101
99.337 100 79.7099
100.46 100 79.7098
101.583 100 79.7098
102.705 100 79.7098
103.828 100 79.7098
104.95 100 79.7098
106.073 100 79.7098
107.195 100 79.7098
108.318 100 79.7098
109.44 100 79.7098
110.563 100 79.7098
111.685 100 79.7098
112.807 100 79.7098
113.93 100 79.7098
115.052 100 79.7098
116.175 100 79.7098
117.297 100 79.7098
118.42 100 79.7098
119.542 100 79.7098
120.665 100 79.7098
121.787 100 79.7098
122.91 100 79.7098
124.032 100 79.7098
125.155 100 79.7099
126.279 100 79.7101
127.402 100 79.7103
128.525 100 79.7102
129.648 100 79.7101
130.772 100 79.7104
131.896 100 79.7102
133.018 100 79.7102
134.13 100 79.7101
135.223 100 79.7103
136.318 100 79.7105
137.421 100 79.7115
138.517 100 79.7133
139.613 100 79.7151
140.712 100 79.7172
141.811 100 79.7211
142.916 100 79.6905
144.012 100 79.8589
145.058 100 79.4918
79.4155 100 80.629
80.4766 100 80.9427
81.5736 100 80.7966
82.6776 100 80.82
83.7764 100 80.816
84.8773 100 80.8133
85.9748 100 80.8112
87.0731 100 80.8096
88.1786 100 80.8093
89.2752 100 80.8095
90.3707 100 80.8094
91.4837 100 80.8096
92.6064 100 80.8096
93.7285 100 80.8098
94.8501 100 80.8097
95.9718 100 80.8098
97.0937 100 80.81
98.2158 100 80.81
99.3381 100 80.8099
100.46 100 80.8099
101.583 100 80.8099
102.705 100 80.81
103.828 100 80.81
104.95 100 80.81
106.073 100 80.81
107.195 100 80.81
108.318 100 80.81
109.44 100 80.81
110.563 100 80.81
111.685 100 80.81
112.807 100 80.81
113.93 100 80.81
115.052 100 80.81
116.175 100 80.81
117.297 100 80.81
118.42 100 80.81
119.542 100 80.81
120.665 100 80.81
121.787 100 80.81
122.91 100 80.8099
124.032 100 80.8099
125.154 100 80.8099
126.277 100 80.81
127.399 100 80.81
128.521 100 80.8098
129.642 100 80.8097
130.764 100 80.8098
131.886 100 80.8096
133.009 100 80.8096
134.122 100 80.8094
135.217 100 80.8095
136.314 100 80.8093
137.419 100 80.8096
138.518 100 80.8112
139.615 100 80.8133
140.716 100 80.816
141.815 100 80.82
142.919 100 80.7966
144.016 100 80.9427
145.077 100 80.629
79.4012 100 81.7656
80.4759 100 82.0219
81.5734 100 81.9042
82.6754 100 81.9204
83.7736 100 81.9167
84.8745 100 81.9142
85.9725 100 81.9125
87.0713 100 81.9112
88.1767 100 81.9111
89.2722 100 81.9112
90.3669 100 81.9111
91.48 100 81.9113
92.6022 100 81.9111
93.7251 100 81.9111
94.8477 100 81.9111
95.9703 100 81.9111
97.0928 100 81.9112
98.2153 100 81.9112
99.3378 100 81.9111
100.46 100 81.9111
101.583 100 81.9112
102.705 100 81.9112
103.828 100 81.9112
104.95 100 81.9112
106.073 100 81.9112
107.195 100 81.9112
108.318 100 81.9112
109.44 100 81.9112
110.563 100 81.9112
111.685 100 81.9112
112.807 100 81.9112
113.93 100 81.9112
115.052 100 81.9112
116.175 100 81.9112
117.297 100 81.9112
118.42 100 81.9112
119.542 100 81.9112
120.665 100 81.9112
121.787 100 81.9112
122.91 100 81.9112
124.032 100 81.9111
125.155 100 81.9111
126.277 100 81.9112
127.4 100 81.9112
128.522 100 81.9111
129.645 100 81.9111
130.767 100 81.9111
131.89 100 81.9111
133.012 100 81.9113
134.125 100 81.9111
135.22 100 81.9112
136.316 100 81.9111
137.421 100 81.9112
138.52 100 81.9125
139.618 100 81.9142
140.719 100 81.9167
141.817 100 81.9204
142.919 100 81.9042
144.017 100 82.0219
145.091 100 81.7656
79.3901 100 82.9009
80.4764 100 83.1005
81.5731 100 83.0071
82.6736 100 83.0175
83.7716 100 83.0141
84.8728 100 83.0122
85.9714 100 83.0111
87.0709 100 83.01
88.1769 100 83.0096
89.2722 100 83.0094
90.3674 100 83.0092
91.4807 100 83.0092
92.6029 100 83.0091
93.7256 100 83.009
94.8481 100 83.0089
95.9705 100 83.0089
97.093 100 83.009
98.2154 100 83.009
99.3379 100 83.0089
100.46 100 83.0089
101.583 100 83.0089
102.705 100 83.0089
103.828 100 83.0089
104.95 100 83.0089
106.073 100 83.0089
107.195 100 83.0089
108.318 100 83.0089
109.44 100 83.0089
110.563 100 83.0089
111.685 100 83.0089
112.807 100 83.0089
113.93 100 83.0089
115.052 100 83.0089
116.175 100 83.0089
117.297 100 83.0089
118.42 100 83.0089
119.542 100 83.0089
120.665 100 83.0089
121.787 100 83.0089
122.91 100 83.0089
124.032 100 83.0089
125.155 100 83.0089
126.277 100 83.009
127.399 100 83.009
128.522 100 83.0089
129.644 100 83.0089
130.767 100 83.009
131.89 100 83.0091
133.012 100 83.0092
134.125 100 83.0092
135.22 100 83.0094
136.315 100 83.0096
137.421 100 83.01
138.521 100 83.0111
139.62 100 83.0122
140.721 100 83.0141
141.819 100 83.0175
142.919 100 83.0071
144.016 100 83.1005
145.102 100 82.9009
79.3822 100 84.0343
80.475 100 84.1751
81.5721 100 84.109
82.6718 100 84.1144
83.77 100 84.1123
84.8716 100 84.1111
85.9704 100 84.1105
87.0701 100 84.1095
88.1764 100 84.1089
89.2714 100 84.1088
90.3672 100 84.1088
91.4811 100 84.109
92.6029 100 84.1091
93.7256 100 84.1091
94.848 100 84.1091
95.9705 100 84.1091
97.093 100 84.1091
98.2154 100 84.1091
99.3379 100 84.1091
100.46 100 84.1091
101.583 100 84.1091
102.705 100 84.1091
103.828 100 84.1091
104.95 100 84.1091
106.073 100 84.1091
107.195 100 84.1091
108.318 100 84.1091
109.44 100 84.1091
110.563 100 84.1091
111.685 100 84.1091
112.807 100 84.1091
113.93 100 84.1091
115.052 100 84.1091
116.175 100 84.1091
117.297 100 84.1091
118.42 100 84.1091
119.542 100 84.1091
120.665 100 84.1091
121.787 100 84.1091
122.91 100 84.1091
124.032 100 84.1091
125.155 100 84.1091
126.277 100 84.1091
127.399 100 84.1091
128.522 100 84.1091
129.644 100 84.1091
130.767 100 84.1091
131.889 100 84.1091
133.011 100 84.109
134.125 100 84.1088
135.221 100 84.1088
136.316 100 84.1089
137.422 100 84.1095
138.522 100 84.1105
139.621 100 84.1111
140.722 100 84.1123
141.821 100 84.1144
142.92 100 84.109
144.017 100 84.1751
145.11 100 84.0343
79.3771 100 85.1616
80.4735 100 85.2514
81.5713 100 85.214
82.6707 100 85.2164
83.7696 100 85.2156
84.8713 100 85.2149
85.9699 100 85.2146
87.0694 100 85.214
88.1754 100 85.2134
89.2703 100 85.2132
90.3666 100 85.2131
91.4814 100 85.2131
92.6031 100 85.2132
93.7256 100 85.2132
94.848 100 85.2132
95.9705 100 85.2132
97.093 100 85.2132
98.2154 100 85.2132
99.3379 100 85.2132
100.46 100 85.2132
101.583 100 85.2132
102.705 100 85.2132
103.828 100 85.2132
[...]
POINT_DATA 1600
SCALARS mass double
LOOKUP_TABLE default
1
1
1
1
1
1
1
1
1
1
1
1
1
1
1
1
1
1
1
1
1
1
1
1
1
1
1
1
1
1
1
1
1
1
1
1
1
1
1
1
1
1
1
1
1
1
1
1
1
1
1
1
1
1
1
1
1
1
1
1
1
1
1
1
1
1
1
1
1
1
1
1
1
1
1
1
1
1
1
1
1
1
1
1
1
1
1
1
1
1
1
1
1
1
1
1
1
1
1
1
1
1
1
1
1
1
1
1
1
1
1
1
1
1
1
1
1
1
1
1
1
1
1
1
1
1
1
1
1
1
1
1
1
1
1
1
1
1
1
1
1
1
1
1
1
1
1
1
1
1
1
1
1
1
1
1
1
1
1
1
1
1
1
1
1
1
1
1
1
1
1
1
1
1
1
1
1
1
1
1
1
1
1
1
1
1
1
1
1
1
1
1
1
1
1
1
1
1
1
1
1
1
1
1
1
1
1
1
1
1
1
1
1
1
1
1
1
1
1
1
1
1
1
1
1
1
1
1
1
1
1
1
1
1
1
1
1
1
1
1
1
1
1
1
1
1
1
1
1
1
1
1
1
1
1
1
1
1
1
1
1
1
1
1
1
1
1
1
1
1
1
1
1
1
1
1
1
1
1
1
1
1
1
1
1
1
1
1
1
1
1
1
1
1
1
1
1
1
1
1
1
1
1
1
1
1
1
1
1
1
1
1
1
1
1
1
1
1
1
1
1
1
1
1
1
1
1
1
1
1
1
1
1
1
1
1
1
1
1
1
1
1
1
1
1
1
1
1
1
1
1
1
1
1
1
1
1
1
1
1
1
1
1
1
1
1
1
1
1
1
1
1
1
1
1
1
1
1
1
1
1
1
1
1
1
1
1
1
1
1
1
1
1
1
1
1
1
1
1
1
1
1
1
1
1
1
1
1
1
1
1
1
1
1
1
1
1
1
1
1
1
1
1
1
1
1
1
1
1
1
1
1
1
1
1
1
1
1
1
1
1
1
1
1
1
1
1
1
1
1
1
1
1
1
1
1
1
1
1
1
1
1
1
1
1
1
1
1
1
1
1
1
1
1
1
1
1
1
1
1
1
1
1
1
1
1
1
1
1
1
1
1
1
1
1
1
1
1
1
1
1
1
1
1
1
1
1
1
1
1
1
1
1
1
1
1
1
1
1
1
1
1
1
1
1
1
1
1
1
1
1
1
1
1
1
1
1
1
1
1
1
1
1
1
1
1
1
1
1
1
1
1
1
1
1
1
1
1
1
1
1
1
1
1
1
1
1
1
1
1
1
1
1
1
1
1
1
1
1
1
1
1
1
1
1
1
1
1
1
1
1
1
1
1
1
1
1
1
1
1
1
1
1
1
1
1
1
1
1
1
1
1
1
1
1
1
1
1
1
1
1
1
1
1
1
1
1
1
1
1
1
1
1
1
1
1
1
1
1
1
1
1
1
1
1
1
1
1
1
1
1
1
1
1
1
1
1
1
1
1
1
1
1
1
1
1
1
1
1
1
1
1
1
1
1
1
1
1
1
1
1
1
1
1
1
1
1
1
1
1
1
1
1
1
1
1
1
1
1
1
1
1
1
1
1
1
1
1
1
1
1
1
1
1
1
1
1
1
1
1
1
1
1
1
1
1
1
1
1
1
1
1
1
1
1
1
1
1
1
1
1
1
1
1
1
1
1
1
1
1
1
1
1
1
1
1
1
1
1
1
1
1
1
1
1
1
1
1
1
1
1
1
1
1
1
1
1
1
1
1
1
1
1
1
1
1
1
1
1
1
1
1
1
1
1
1
1
1
1
1
1
1
1
1
1
1
1
1
1
1
1
1
1
1
1
1
1
1
1
1
1
1
1
1
1
1
1
1
1
1
1
1
1
1
1
1
1
1
1
1
1
1
1
1
1
1
1
1
1
1
1
1
1
1
1
1
1
1
1
1
1
1
1
1
1
1
1
1
1
1
1
1
1
1
1
1
1
1
1
1
1
1
1
1
1
1
1
1
1
1
1
1
1
1
1
1
1
1
1
1
1
1
1
1
1
1
1
1
1
1
1
1
1
1
1
1
1
1
1
1
1
1
1
1
1
1
1
1
1
1
1
1
1
1
1
1
1
1
1
1
1
1
1
1
1
1
1
1
1
1
1
1
1
1
1
1
1
1
1
1
1
1
1
1
1
1
1
1
1
1
1
1
1
1
1
1
1
1
1
1
1
1
1
1
1
1
1
1
1
1
1
1
1
1
1
1
1
1
1
1
1
1
1
1
1
1
1
1
1
1
1
1
1
1
1
1
1
1
1
1
1
1
1
1
1
1
1
1
1
1
1
1
1
1
1
1
1
1
1
1
1
1
1
1
1
1
1
1
1
1
1
1
1
1
1
1
1
1
1
1
1
1
1
1
1
1
1
1
1
1
1
1
1
1
1
1
1
1
1
1
1
1
1
1
1
1
1
1
1
1
1
1
1
1
1
1
1
1
1
1
1
1
1
1
1
1
1
1
1
1
1
1
1
1
1
1
1
1
1
1
1
1
1
1
1
1
1
1
1
1
1
1
1
1
1
1
1
1
1
1
1
1
1
1
1
1
1
1
1
1
1
1
1
1
1
1
1
1
1
1
1
1
1
1
1
1
1
1
1
1
1
1
1
1
1
1
1
1
1
1
1
1
1
1
1
1
1
1
1
1
1
1
1
1
1
1
1
1
1
1
1
1
1
1
1
1
1
1
1
1
1
1
1
1
1
1
1
1
1
1
1
1
1
1
1
1
1
1
1
1
1
1
1
1
1
1
1
1
1
1
1
1
1
1
1
1
1
1
1
1
1
1
1
1
1
1
1
1
1
1
1
1
1
1
1
1
1
1
1
1
1
1
1
1
1
1
1
1
1
1
1
1
1
1
1
1
1
1
1
1
1
1
1
1
1
1
1
1
1
1
1
1
1
1
1
1
1
1
1
1
1
1
1
1
1
1
1
1
1
1
1
1
1
1
1
1
1
1
1
1
1
1
1
1
1
1
1
1
1
1
1
1
1
1
1
1
1
1
1
1
1
1
1
1
1
1
1
1
1
1
1
1
1
1
1
1
1
1
1
1
1
1
1
1
1
1
1
1
1
1
1
1
1
1
1
1
1
1
1
1
1
1
1
1
1
1
1
1
1
1
1
1
1
1
1
1
1
1
1
1
1
1
1
1
1
1
1
1
1
1
1
1
1
1
1
1
1
1
1
1
1
1
1
1
1
1
1
1
1
1
1
1
1
1
1
1
1
1
1
1
1
1
1
1
1
1
1
1
1
1
1
1
1
1
1
1
1
1
1
1
1
1
1
1
1
1
1
1
1
1
1
1
1
1
1
1
1
1
1
1
1
1
1
1
1
1
1
1
1
1
1
1
1
1
1
1
1
1
1
1
1
1
1
1
1
1
1
1
1
1
1
1
1
1
1
1
1
1
1
1
1
1
1
1
1
1
1
1
1
1
1
1
1
1
1
1
1
1
1
1
1
1
1
1
1
1
1
1
1
1
1
1
1
1
1
1
1
1
1
1
1
1
1
1
1
1
1
1
1
1
1
1
1
1
1
1
1
1
1
1
1
1
1
1
1
1
1
1
1
1
VECTORS force double
10.2221 0 10.222
-12.8911 0 -6.41389
21.1065 0 0.618297
-3.52232 0 7.68424
-6.85091 0 6.08305
-6.10515 0 4.47632
-5.02643 0 3.52264
-5.11953 0 1.69619
-4.62758 0 0.64418
-1.22358 0 0.923147
0.878913 0 0.628429
0.328286 0 0.191496
-0.252697 0 0.0257798
0.120572 0 -0.0724031
0.283062 0 -0.0770515
0.0610953 0 -0.17639
0.0394616 0 -0.111581
0.0214323 0 -0.132514
0.00942439 0 -0.141394
0.00408506 0 -0.137075
0.00222053 0 -0.132119
0.00175016 0 -0.126837
0.00157224 0 -0.127446
0.00103877 0 -0.141524
0.000128517 0 -0.141937
1.25639e-05 0 -0.141923
5.32039e-07 0 -0.141914
6.40638e-09 0 -0.141914
-3.66412e-11 0 -0.141914
7.65388e-12 0 -0.141914
-3.96694e-12 0 -0.141914
2.91118e-11 0 -0.141914
-6.42614e-09 0 -0.141914
-5.31948e-07 0 -0.141914
-1.2564e-05 0 -0.141923
-0.000128516 0 -0.141937
-0.00103877 0 -0.141524
-0.00157224 0 -0.127446
-0.00175016 0 -0.126837
-0.00222053 0 -0.132119
-0.00408506 0 -0.137075
-0.00942439 0 -0.141394
-0.0214323 0 -0.132514
-0.0394616 0 -0.111581
-0.0610953 0 -0.17639
-0.283062 0 -0.0770515
-0.120572 0 -0.0724031
0.252697 0 0.0257798
-0.328286 0 0.191496
-0.878913 0 0.628429
1.22358 0 0.923147
4.62758 0 0.64418
5.11953 0 1.69619
5.02643 0 3.52264
6.10515 0 4.47632
6.85091 0 6.08305
3.52232 0 7.68424
-21.1065 0 0.618297
12.8911 0 -6.41389
-10.2221 0 10.222
-6.41466 0 -12.8927
-5.39538 0 -5.38435
2.61039 0 -2.42239
4.54775 0 -1.35057
6.50389 0 -1.22778
7.4125 0 -0.891575
3.57488 0 -1.0362
8.49615 0 -0.426188
5.86398 0 0.103547
-4.10221 0 0.0230099
14.5497 0 0.366258
5.65161 0 0.365181
-0.314015 0 0.255514
-0.781472 0 0.25821
-0.63978 0 0.292532
-0.573925 0 0.289232
-0.697192 0 0.196535
-0.349913 0 0.298417
-0.246706 0 0.274279
-0.215295 0 0.255828
-0.19456 0 0.264825
-0.184832 0 0.299138
-0.159604 0 0.296106
-0.0186799 0 0.236855
-0.00222191 0 0.239374
-0.000217866 0 0.239544
-6.30544e-06 0 0.239544
-2.56265e-08 0 0.239544
2.52539e-10 0 0.239544
7.85871e-12 0 0.239544
-3.86369e-12 0 0.239544
-2.60235e-10 0 0.239544
2.55986e-08 0 0.239544
6.30555e-06 0 0.239544
0.000217866 0 0.239544
0.00222191 0 0.239374
0.0186799 0 0.236855
0.159604 0 0.296106
0.184832 0 0.299138
0.19456 0 0.264825
0.215295 0 0.255828
0.246706 0 0.274279
0.349913 0 0.298417
0.697192 0 0.196535
0.573925 0 0.289232
0.63978 0 0.292532
0.781472 0 0.25821
0.314015 0 0.255514
-5.65161 0 0.365181
-14.5497 0 0.366258
4.10221 0 0.0230099
-5.86398 0 0.103547
-8.49615 0 -0.426188
-3.57488 0 -1.0362
-7.4125 0 -0.891575
-6.50389 0 -1.22778
-4.54775 0 -1.35057
-2.61039 0 -2.42239
5.39538 0 -5.38435
6.41466 0 -12.8927
0.62531 0 21.107
-2.41366 0 2.65204
-5.93446 0 -5.95506
-5.2722 0 -1.65145
-2.8234 0 -2.07282
-4.44875 0 -1.41946
-2.19104 0 -0.6773
0.565522 0 -0.382323
-4.28067 0 0.0318547
-1.57917 0 0.301834
6.69629 0 0.0469621
3.19539 0 -0.113585
0.567879 0 -0.230898
0.90907 0 -0.128777
0.993249 0 -0.226763
0.8085 0 -0.250287
0.629669 0 -0.248812
0.511747 0 -0.292938
0.546209 0 -0.287746
0.416977 0 -0.304579
0.345131 0 -0.328717
0.0874691 0 -0.236042
0.013054 0 -0.23613
0.00203528 0 -0.249339
0.000214122 0 -0.250947
1.11607e-05 0 -0.251087
3.66746e-07 0 -0.251093
4.7238e-09 0 -0.251094
-2.39142e-11 0 -0.251094
7.85258e-12 0 -0.251094
-3.86147e-12 0 -0.251094
1.6172e-11 0 -0.251094
-4.73098e-09 0 -0.251094
-3.66663e-07 0 -0.251093
-1.11608e-05 0 -0.251087
-0.000214121 0 -0.250947
-0.00203528 0 -0.249339
-0.013054 0 -0.23613
-0.0874691 0 -0.236042
-0.345131 0 -0.328717
-0.416977 0 -0.304579
-0.546209 0 -0.287746
-0.511747 0 -0.292938
-0.629669 0 -0.248812
-0.8085 0 -0.250287
-0.993249 0 -0.226763
-0.90907 0 -0.128777
-0.567879 0 -0.230898
-3.19539 0 -0.113585
-6.69629 0 0.0469621
1.57917 0 0.301834
4.28067 0 0.0318547
-0.565522 0 -0.382323
2.19104 0 -0.6773
4.44875 0 -1.41946
2.8234 0 -2.07282
5.2722 0 -1.65145
5.93446 0 -5.95506
2.41366 0 2.65204
-0.62531 0 21.107
7.69744 0 -3.52136
-1.35753 0 4.63795
-1.69469 0 -5.36787
-1.74937 0 -1.64003
1.11634 0 -1.81654
-1.05476 0 -1.45135
-0.0480549 0 -0.924145
2.83924 0 -0.560169
-3.25914 0 -0.250002
-1.97506 0 -0.289736
7.08512 0 -0.325849
2.06504 0 -0.387041
-0.620923 0 -0.258801
-0.885799 0 -0.289859
-0.735465 0 -0.20214
-0.662577 0 -0.126258
-0.507453 0 -0.0296847
-0.50125 0 0.0792679
-0.463479 0 0.165287
-0.3119 0 0.160216
-0.227537 0 0.175266
-0.190568 0 0.214546
-0.17823 0 0.216803
-0.000538362 0 0.130676
-6.51187e-05 0 0.130599
-3.79599e-06 0 0.130598
-1.07605e-07 0 0.130598
-1.52587e-09 0 0.130598
-1.07629e-11 0 0.130598
7.57483e-12 0 0.130598
-3.86979e-12 0 0.130598
3.33733e-12 0 0.130598
1.50541e-09 0 0.130598
1.07672e-07 0 0.130598
3.79587e-06 0 0.130598
6.51188e-05 0 0.130599
0.000538362 0 0.130676
0.17823 0 0.216803
0.190568 0 0.214546
0.227537 0 0.175266
0.3119 0 0.160216
0.463479 0 0.165287
0.50125 0 0.0792679
0.507453 0 -0.0296847
0.662577 0 -0.126258
0.735465 0 -0.20214
0.885799 0 -0.289859
0.620923 0 -0.258801
-2.06504 0 -0.387041
-7.08512 0 -0.325849
1.97506 0 -0.289736
3.25914 0 -0.250002
-2.83924 0 -0.560169
0.0480549 0 -0.924145
1.05476 0 -1.45135
-1.11634 0 -1.81654
1.74937 0 -1.64003
1.69469 0 -5.36787
1.35753 0 4.63795
-7.69744 0 -3.52136
6.11722 0 -6.84778
-1.21239 0 6.67254
-2.09313 0 -3.06534
-1.81156 0 1.3083
0.824102 0 0.788312
-1.38905 0 1.07617
0.36582 0 1.33087
2.95344 0 1.32784
-3.4878 0 1.22763
-0.334609 0 1.00809
6.95175 0 0.887091
3.04877 0 0.970844
0.142705 0 0.861051
0.438508 0 0.826413
0.578235 0 0.77695
0.537996 0 0.725081
0.494973 0 0.61381
0.26551 0 0.451446
0.230486 0 0.394346
0.207256 0 0.344301
0.187242 0 0.342983
0.00331231 0 0.432782
0.000588387 0 0.433287
6.37261e-05 0 0.433411
5.54964e-06 0 0.433406
3.16532e-07 0 0.433406
9.89997e-09 0 0.433406
2.88541e-12 0 0.433406
-7.53686e-12 0 0.433406
8.02804e-12 0 0.433406
-4.32676e-12 0 0.433406
-2.84633e-14 0 0.433406
5.44043e-12 0 0.433406
-9.87504e-09 0 0.433406
-3.16639e-07 0 0.433406
-5.54949e-06 0 0.433406
-6.37262e-05 0 0.433411
-0.000588387 0 0.433287
-0.00331231 0 0.432782
-0.187242 0 0.342983
-0.207256 0 0.344301
-0.230486 0 0.394346
-0.26551 0 0.451446
-0.494973 0 0.61381
-0.537996 0 0.725081
-0.578235 0 0.77695
-0.438508 0 0.826413
-0.142705 0 0.861051
-3.04877 0 0.970844
-6.95175 0 0.887091
0.334609 0 1.00809
3.4878 0 1.22763
-2.95344 0 1.32784
-0.36582 0 1.33087
1.38905 0 1.07617
-0.824102 0 0.788312
1.81156 0 1.3083
2.09313 0 -3.06534
1.21239 0 6.67254
-6.11722 0 -6.84778
4.53033 0 -6.09137
-0.850517 0 7.76113
-1.47725 0 -4.80466
-1.47906 0 -0.832785
1.06267 0 -1.42347
-1.24878 0 -1.22459
0.315144 0 -1.12619
2.58441 0 -1.17254
-4.11863 0 -1.37159
-0.419857 0 -1.40058
6.91886 0 -1.46583
2.38414 0 -1.48643
-0.113796 0 -1.39186
-0.343931 0 -1.39473
-0.237784 0 -1.39937
-0.219208 0 -1.36837
-0.208359 0 -1.33263
-0.196401 0 -1.33492
-0.180306 0 -1.33159
-0.0049335 0 -1.24821
-0.0062223 0 -1.25534
-0.00228999 0 -1.25777
-0.000675328 0 -1.25859
-0.000209263 0 -1.25882
-6.19822e-06 0 -1.25882
-3.42626e-08 0 -1.25882
-2.33501e-10 0 -1.25882
-3.85572e-11 0 -1.25882
-1.03118e-11 0 -1.25882
1.61529e-11 0 -1.25882
-1.25807e-11 0 -1.25882
2.86349e-12 0 -1.25882
4.62876e-11 0 -1.25882
2.36814e-10 0 -1.25882
3.42163e-08 0 -1.25882
6.1983e-06 0 -1.25882
0.000209263 0 -1.25882
0.000675328 0 -1.25859
0.00228999 0 -1.25777
0.0062223 0 -1.25534
0.0049335 0 -1.24821
0.180306 0 -1.33159
0.196401 0 -1.33492
0.208359 0 -1.33263
0.219208 0 -1.36837
0.237784 0 -1.39937
0.343931 0 -1.39473
0.113796 0 -1.39186
-2.38414 0 -1.48643
-6.91886 0 -1.46583
0.419857 0 -1.40058
4.11863 0 -1.37159
-2.58441 0 -1.17254
-0.315144 0 -1.12619
1.24878 0 -1.22459
-1.06267 0 -1.42347
1.47906 0 -0.832785
1.47725 0 -4.80466
0.850517 0 7.76113
-4.53033 0 -6.09137
3.62802 0 -4.93957
-1.00426 0 3.82379
-0.737393 0 -2.66025
-0.97023 0 0.218168
1.3134 0 0.283804
-1.13009 0 0.349226
0.358834 0 0.305153
2.56511 0 0.270137
-4.36005 0 0.314915
-0.0139894 0 0.439281
6.88478 0 0.581214
2.53806 0 0.758057
-0.00384476 0 0.780072
-0.0868091 0 0.937742
0.19272 0 0.855671
0.183738 0 0.86161
0.179709 0 0.885519
0.00347877 0 0.969103
0.00265042 0 0.964221
0.00180702 0 0.969792
0.000851518 0 0.974626
0.000251534 0 0.976083
6.30821e-05 0 0.976469
1.24652e-05 0 0.976561
9.41303e-07 0 0.976551
3.42547e-08 0 0.976551
-4.90264e-10 0 0.976551
-1.7228e-09 0 0.976551
-5.02974e-10 0 0.976551
5.11625e-11 0 0.976551
-4.71356e-11 0 0.976551
4.93131e-10 0 0.976551
1.72907e-09 0 0.976551
4.95781e-10 0 0.976551
-3.42978e-08 0 0.976551
-9.4121e-07 0 0.976551
-1.24653e-05 0 0.976561
-6.3082e-05 0 0.976469
-0.000251534 0 0.976083
-0.000851517 0 0.974626
-0.00180702 0 0.969792
-0.00265042 0 0.964221
-0.00347877 0 0.969103
-0.179709 0 0.885519
-0.183738 0 0.86161
-0.19272 0 0.855671
0.0868091 0 0.937742
0.00384476 0 0.780072
-2.53806 0 0.758057
-6.88478 0 0.581214
0.0139894 0 0.439281
4.36005 0 0.314915
-2.56511 0 0.270137
-0.358834 0 0.305153
1.13009 0 0.349226
-1.3134 0 0.283804
0.97023 0 0.218168
0.737393 0 -2.66025
1.00426 0 3.82379
-3.62802 0 -4.93957
1.83411 0 -4.86119
-0.31566 0 6.02997
-0.494901 0 -0.533651
-0.59877 0 2.37481
1.31269 0 2.07026
-1.17379 0 1.97022
0.334755 0 1.92059
2.56257 0 1.97827
-4.55788 0 2.11041
0.292818 0 2.03737
6.82216 0 1.85918
2.08931 0 1.69311
-0.138635 0 1.65472
-0.233537 0 1.55335
-0.00240815 0 1.62291
-9.1189e-05 0 1.45112
-0.00039833 0 1.45752
-0.000325142 0 1.45692
-0.000205335 0 1.45477
-9.99728e-07 0 1.45478
-1.37977e-05 0 1.45442
-5.89817e-05 0 1.45496
1.33369e-05 0 1.45465
-1.05902e-06 0 1.4547
7.70818e-08 0 1.4547
3.19681e-07 0 1.4547
2.09718e-07 0 1.4547
6.92506e-08 0 1.4547
1.9824e-08 0 1.45471
7.06561e-09 0 1.45471
-7.06201e-09 0 1.45471
-1.97601e-08 0 1.45471
-6.93863e-08 0 1.4547
-2.09597e-07 0 1.4547
-3.1979e-07 0 1.4547
-7.695e-08 0 1.4547
1.05888e-06 0 1.4547
-1.33368e-05 0 1.45465
5.89816e-05 0 1.45496
1.37979e-05 0 1.45442
9.9986e-07 0 1.45478
0.000205334 0 1.45477
0.000325142 0 1.45692
0.000398331 0 1.45752
9.11885e-05 0 1.45112
0.00240815 0 1.62291
0.233537 0 1.55335
0.138635 0 1.65472
-2.08931 0 1.69311
-6.82216 0 1.85918
-0.292818 0 2.03737
4.55788 0 2.11041
-2.56257 0 1.97827
-0.334755 0 1.92059
1.17379 0 1.97022
-1.31269 0 2.07026
0.59877 0 2.37481
0.494901 0 -0.533651
0.31566 0 6.02997
-1.83411 0 -4.86119
0.787512 0 -4.64408
0.509251 0 -5.77785
-0.198261 0 -8.94496
-0.256636 0 -7.6189
1.13841 0 -8.0446
-1.36126 0 -8.07976
0.373449 0 -8.09509
2.53704 0 -8.05834
-4.57713 0 -7.89627
0.62521 0 -7.80782
6.84201 0 -7.79905
1.8006 0 -7.7422
0.0312033 0 -7.73257
-0.0203627 0 -7.68359
0.00314887 0 -7.68621
0.000605384 0 -7.68621
-0.000111186 0 -7.68543
-3.34756e-05 0 -7.68553
-0.000237066 0 -7.68649
0.00533848 0 -7.6699
-1.28799e-05 0 -7.75795
-0.00521452 0 -7.66824
0.000356895 0 -7.68659
5.29315e-06 0 -7.6853
3.25755e-05 0 -7.68532
3.80023e-05 0 -7.68542
3.33983e-05 0 -7.68555
1.82645e-05 0 -7.68559
6.90545e-06 0 -7.6856
1.81161e-06 0 -7.6856
-1.81163e-06 0 -7.6856
-6.90537e-06 0 -7.6856
-1.82646e-05 0 -7.68559
-3.33982e-05 0 -7.68555
-3.80025e-05 0 -7.68542
-3.25754e-05 0 -7.68532
-5.29315e-06 0 -7.6853
-0.000356895 0 -7.68659
0.00521452 0 -7.66824
1.28799e-05 0 -7.75795
-0.00533848 0 -7.6699
0.000237066 0 -7.68649
3.34753e-05 0 -7.68553
0.000111186 0 -7.68543
-0.000605384 0 -7.68621
-0.00314887 0 -7.68621
0.0203627 0 -7.68359
-0.0312033 0 -7.73257
-1.8006 0 -7.7422
-6.84201 0 -7.79905
-0.62521 0 -7.80782
4.57713 0 -7.89627
-2.53704 0 -8.05834
-0.373449 0 -8.09509
1.36126 0 -8.07976
-1.13841 0 -8.0446
0.256636 0 -7.6189
0.198261 0 -8.94496
-0.509251 0 -5.77785
-0.787512 0 -4.64408
0.92741 0 -1.85543
0.657929 0 -18.2935
0.361042 0 -9.94713
-0.269928 0 -9.31327
0.979402 0 -9.01348
-1.36257 0 -8.57245
0.426881 0 -8.40037
2.53713 0 -8.32416
-4.63042 0 -8.1677
0.728889 0 -7.98507
6.95821 0 -7.86007
1.84303 0 -7.72793
0.125999 0 -7.64136
0.00172729 0 -7.61087
0.00356161 0 -7.6128
0.000859687 0 -7.61246
8.68084e-06 0 -7.61231
-0.000167759 0 -7.6136
0.000547793 0 -7.61652
0.182319 0 -7.29104
0.00172209 0 -15.7186
-0.172437 0 -7.28805
0.00733826 0 -7.77584
0.00133056 0 -7.7491
0.0024786 0 -7.7737
0.00252015 0 -7.79674
0.00221797 0 -7.82377
0.00128365 0 -7.84206
0.000509927 0 -7.8491
0.000136282 0 -7.85163
-0.000136282 0 -7.85163
-0.000509927 0 -7.8491
-0.00128365 0 -7.84206
-0.00221797 0 -7.82377
-0.00252015 0 -7.79674
-0.0024786 0 -7.7737
-0.00133056 0 -7.7491
-0.00733826 0 -7.77584
0.172437 0 -7.28805
-0.00172209 0 -15.7186
-0.182319 0 -7.29104
-0.000547793 0 -7.61652
0.000167759 0 -7.6136
-8.68027e-06 0 -7.61231
-0.000859687 0 -7.61246
-0.0035616 0 -7.6128
-0.00172729 0 -7.61087
-0.125999 0 -7.64136
-1.84303 0 -7.72793
-6.95821 0 -7.86007
-0.728889 0 -7.98507
4.63042 0 -8.1677
-2.53713 0 -8.32416
-0.426881 0 -8.40037
1.36257 0 -8.57245
-0.979402 0 -9.01348
0.269928 0 -9.31327
-0.361042 0 -9.94713
-0.657929 0 -18.2935
-0.92741 0 -1.85543
0.92741 0 1.85543
0.657929 0 18.2935
0.361042 0 9.94713
-0.269928 0 9.31327
0.979402 0 9.01348
-1.36257 0 8.57245
0.426881 0 8.40037
2.53713 0 8.32416
-4.63042 0 8.1677
0.728889 0 7.98507
6.95821 0 7.86007
1.84303 0 7.72793
0.126 0 7.64136
0.00173234 0 7.61088
0.00357798 0 7.61261
0.00102655 0 7.61253
0.000552455 0 7.61172
-0.00150215 0 7.60149
0.0612446 0 7.61146
2.00563 0 9.43523
0.0259199 0 -316.534
-1.71036 0 7.33261
0.144907 0 -5.0494
0.0344613 0 -4.81478
0.056496 0 -6.67317
0.0556306 0 -8.38872
0.0480464 0 -10.2693
0.0280547 0 -11.6185
0.0113163 0 -12.1737
0.0030512 0 -12.3805
-0.0030512 0 -12.3805
-0.0113163 0 -12.1737
-0.0280547 0 -11.6185
-0.0480464 0 -10.2693
-0.0556306 0 -8.38872
-0.056496 0 -6.67317
-0.0344613 0 -4.81478
-0.144907 0 -5.0494
1.71036 0 7.33261
-0.0259199 0 -316.534
-2.00563 0 9.43523
-0.0612446 0 7.61146
0.00150215 0 7.60149
-0.000552455 0 7.61172
-0.00102655 0 7.61253
-0.00357798 0 7.61261
-0.00173234 0 7.61088
-0.126 0 7.64136
-1.84303 0 7.72793
-6.95821 0 7.86007
-0.728889 0 7.98507
4.63042 0 8.1677
-2.53713 0 8.32416
-0.426881 0 8.40037
1.36257 0 8.57245
-0.979402 0 9.01348
0.269928 0 9.31327
-0.361042 0 9.94713
-0.657929 0 18.2935
-0.92741 0 1.85543
0.787512 0 4.64408
0.509251 0 5.77785
-0.198261 0 8.94496
-0.256636 0 7.6189
1.13841 0 8.0446
-1.36126 0 8.07976
0.373449 0 8.09509
2.53704 0 8.05834
-4.57713 0 7.89627
0.62521 0 7.80782
6.84201 0 7.79905
1.80059 0 7.7422
0.031211 0 7.73268
-0.0203286 0 7.68357
0.00287585 0 7.68525
-0.00252611 0 7.68798
-0.00438095 0 7.69242
0.0444228 0 7.67869
0.506759 0 7.63606
6.12972 0 10.1195
1.02466 0 195.496
-2.90907 0 -119.846
0.644469 0 -387.046
0.084313 0 -384.181
0.116282 0 -406.654
0.0881192 0 -422.911
0.0669488 0 -436.414
0.0370285 0 -444.939
0.0143042 0 -447.869
0.00385339 0 -449.036
-0.00385339 0 -449.036
-0.0143042 0 -447.869
-0.0370285 0 -444.939
-0.0669488 0 -436.414
-0.0881192 0 -422.911
-0.116282 0 -406.654
-0.084313 0 -384.181
-0.644469 0 -387.046
2.90907 0 -119.846
-1.02466 0 195.496
-6.12972 0 10.1195
-0.506759 0 7.63606
-0.0444228 0 7.67869
0.00438095 0 7.69242
0.00252611 0 7.68798
-0.00287585 0 7.68525
0.0203286 0 7.68357
-0.031211 0 7.73268
-1.80059 0 7.7422
-6.84201 0 7.79905
-0.62521 0 7.80782
4.57713 0 7.89627
-2.53704 0 8.05834
-0.373449 0 8.09509
1.36126 0 8.07976
-1.13841 0 8.0446
0.256636 0 7.6189
0.198261 0 8.94496
-0.509251 0 5.77785
-0.787512 0 4.64408
1.83411 0 4.86119
-0.31566 0 -6.02997
-0.494901 0 0.533651
-0.59877 0 -2.37481
1.31269 0 -2.07026
-1.17379 0 -1.97022
0.334755 0 -1.92059
2.56257 0 -1.97827
-4.55788 0 -2.11041
0.292818 0 -2.03737
6.82216 0 -1.85918
2.08927 0 -1.69317
-0.138649 0 -1.65337
-0.233459 0 -1.55372
0.172495 0 -1.5441
0.000499755 0 -1.44064
-0.155965 0 -1.53787
0.161226 0 -1.7282
1.40946 0 -2.02218
8.66744 0 1.59261
-2.4102 0 110.231
0.476963 0 -52.2938
-1.58456 0 354.595
0.0517772 0 353.182
0.0252858 0 382.554
0.0226424 0 403.966
0.0105141 0 422.518
0.0131944 0 434.341
0.0105143 0 438.51
0.00280137 0 440.153
-0.00280137 0 440.153
-0.0105143 0 438.51
-0.0131944 0 434.341
-0.0105141 0 422.518
-0.0226424 0 403.966
-0.0252858 0 382.554
-0.0517772 0 353.182
1.58456 0 354.595
-0.476963 0 -52.2938
2.4102 0 110.231
-8.66744 0 1.59261
-1.40946 0 -2.02218
-0.161226 0 -1.7282
0.155965 0 -1.53787
-0.000499755 0 -1.44064
-0.172495 0 -1.5441
0.233459 0 -1.55372
0.138649 0 -1.65337
-2.08927 0 -1.69317
-6.82216 0 -1.85918
-0.292818 0 -2.03737
4.55788 0 -2.11041
-2.56257 0 -1.97827
-0.334755 0 -1.92059
1.17379 0 -1.97022
-1.31269 0 -2.07026
0.59877 0 -2.37481
0.494901 0 0.533651
0.31566 0 -6.02997
-1.83411 0 4.86119
3.62802 0 4.93957
-1.00426 0 -3.82379
-0.737393 0 2.66025
-0.97023 0 -0.218168
1.3134 0 -0.283804
-1.13009 0 -0.349226
0.358834 0 -0.305153
2.56511 0 -0.270137
-4.36005 0 -0.314916
-0.014008 0 -0.439288
6.88471 0 -0.581218
2.53784 0 -0.758262
-0.00446097 0 -0.776198
-0.085428 0 -0.938783
0.197109 0 -0.886181
-0.0112538 0 -0.735184
-0.337547 0 -0.959728
0.137728 0 -0.909537
2.91225 0 -1.51186
8.95561 0 3.66317
-5.39166 0 -419.949
0.214314 0 180.335
-1.21193 0 4.68557