# vtk DataFile Version 3.0
SiWiRVisFile
ASCII
DATASET UNSTRUCTURED_GRID
POINTS 1600 DOUBLE
76.1269 100 71.6166
74.1071 100 71.7703
75.0334 100 72.5357
76.9272 100 72.4185
78.4296 100 72.7604
79.0362 100 73.7069
79.8557 100 73.055
81.0046 100 73.5903
82.0998 100 74.0482
81.6037 100 72.2088
93.1818 100 63.1219
91.9217 100 63.1251
92.6255 100 64.0398
90.788 100 63.458
81.6891 100 64.3657
89.6271 100 56.4644
91.497 100 55.4584
90.1231 100 53.1337
84.8918 100 45.0468
93.8376 100 49.6664
108.26 100 24.4703
108.508 100 23.0144
107.241 100 22.7079
107.591 100 21.6138
106.415 100 24.4377
110.933 100 24.693
110.653 100 15.2531
114.881 100 15.6347
110.276 100 18.8578
110.564 100 17.6942
111.889 100 17.1923
113.314 100 17.7327
111.008 100 16.5747
114.125 100 16.4981
114.538 100 21.7646
117.582 100 25.1586
116.457 100 20.7195
115.754 100 23.5597
114.57 100 23.9599
115.696 100 24.5841
133.667 100 51.1118
139.601 100 45.0468
131.527 100 53.4195
133.545 100 54.1663
135.106 100 53.3217
135.124 100 66.6744
133.704 100 63.2436
134.159 100 65.7299
132.727 100 62.8744
132.998 100 63.9913
142.101 100 72.594
141.252 100 74.1473
142.239 100 73.7657
143.614 100 73.0684
145.695 100 73.306
146.743 100 73.0244
147.792 100 72.4775
149.697 100 72.6152
151.327 100 71.5134
148.807 100 71.8866
73.0044 100 72.6621
74.0103 100 73.0631
76.0135 100 73.0307
76.8621 100 73.7207
77.896 100 74.205
80.0863 100 74.1315
81.1796 100 74.6974
82.2934 100 75.1143
83.1354 100 74.5115
84.5368 100 75.097
85.6219 100 74.7582
92.2301 100 62.0966
91.5641 100 64.2035
91.296 100 60.5884
90.659 100 56.2901
91.2847 100 61.6899
91.6403 100 54.313
91.2771 100 53.2544
92.3321 100 53.4027
96.1041 100 50.9203
107.371 100 23.7137
95.3168 100 32.2315
106.929 100 37.108
108.91 100 21.9355
109.618 100 22.7007
111.354 100 23.6027
112.363 100 22.5062
111.235 100 22.5025
105.952 100 10.8843
111.322 100 18.4826
112.361 100 18.2765
119.053 100 10.9753
113.498 100 20.176
115.452 100 20.0524
115.091 100 22.7466
115.833 100 21.6296
114.499 100 19.4866
119.696 100 37.6122
129.2 100 32.1956
116.743 100 24.124
127.563 100 50.6286
129.531 100 50.8056
132.511 100 51.0717
134.734 100 54.4832
133.518 100 62.0477
134.058 100 55.2235
132.164 100 59.4369
133.914 100 64.5492
131.556 100 62.9394
139.064 100 74.9311
140.132 100 74.4844
140.968 100 75.2485
142.216 100 74.8739
143.379 100 74.1769
144.629 100 73.7507
146.481 100 74.1737
147.633 100 73.6281
148.736 100 73.1739
150.683 100 73.2063
151.792 100 72.7594
73.0176 100 73.8779
74.0251 100 74.3305
74.99 100 73.6604
75.8924 100 74.2258
76.9989 100 74.759
79.0991 100 74.8289
80.1514 100 75.1737
81.3258 100 75.74
82.4168 100 76.2321
83.392 100 75.5758
85.6218 100 75.8278
84.7883 100 77.4815
87.2841 100 76.8881
92.3661 100 61.0193
90.3019 100 60.2196
92.7046 100 57.7721
92.5563 100 55.0467
93.1196 100 54.1149
93.7525 100 52.3398
94.9401 100 50.0832
96.3596 100 49.7012
104.792 100 37.6328
105.83 100 37.291
106.869 100 38.6333
95.6182 100 34.9195
107.814 100 38.1025
107.402 100 36.1018
106.323 100 35.8013
111.558 100 19.5232
112.472 100 20.7482
112.725 100 19.4684
113.549 100 18.8347
122.149 100 37.4794
116.694 100 34.4992
118.585 100 37.2996
120.937 100 37.7395
118.584 100 38.3901
119.872 100 38.8294
120.944 100 38.8557
126.658 100 49.769
133.208 100 52.0933
130.885 100 52.4612
134.069 100 53.1717
132.572 100 53.6735
132.633 100 56.3674
132.546 100 57.9827
132.385 100 61.8256
138.037 100 75.8353
138.95 100 76.3302
139.928 100 75.6659
140.802 100 76.404
141.993 100 75.9183
143.341 100 75.3967
144.467 100 74.9424
145.432 100 74.5348
147.526 100 74.7434
148.742 100 74.2988
149.68 100 73.85
150.568 100 74.4217
151.537 100 73.8563
72.9062 100 75.0492
73.9171 100 75.4128
74.9771 100 74.8753
76.0665 100 75.3396
78.0213 100 75.3431
78.9266 100 75.9597
80.3065 100 76.2742
81.3784 100 76.8795
83.4759 100 76.9052
84.5991 100 76.3002
84.6221 100 78.6982
85.8576 100 76.9565
86.8918 100 75.7924
92.3402 100 59.9107
91.2228 100 59.5593
90.5231 100 58.3876
93.0765 100 56.2138
91.7686 100 56.4955
93.7425 100 55.2107
94.0146 100 53.596
93.9218 100 50.7882
97.2847 100 50.3762
105.073 100 36.5681
104.408 100 41.7371
105.806 100 38.4137
106.168 100 39.5709
108.218 100 40.4679
110.023 100 39.9509
108.016 100 37.0711
113.367 100 21.8145
114.592 100 20.6262
113.416 100 33.5573
115.596 100 39.7516
116.695 100 38.8288
117.73 100 39.1915
119.943 100 39.9628
118.852 100 39.5835
119.385 100 36.5101
126.586 100 50.9677
129.589 100 52.3194
130.149 100 53.4067
133.015 100 55.39
131.803 100 55.697
131.475 100 56.7596
131.445 100 58.198
132.146 100 60.7508
131.33 100 61.4888
137.813 100 74.7539
138.951 100 77.5405
140.072 100 77.6405
141.104 100 77.5439
142.102 100 76.9516
143.233 100 76.4886
144.246 100 76.0169
145.475 100 75.8086
146.424 100 75.2529
148.634 100 75.5047
149.609 100 75.0094
150.623 100 75.6325
151.669 100 75.059
73.019 100 76.1373
74.1307 100 76.4689
75.1811 100 76.0909
76.9882 100 75.9551
77.999 100 76.4764
79.3635 100 77.0658
80.3479 100 77.5279
81.4455 100 77.9714
82.4329 100 77.3153
83.477 100 77.9815
84.6184 100 79.7571
87.8904 100 77.7676
88.114 100 76.1523
94.7956 100 57.1236
91.6816 100 58.3325
90.9776 100 57.3804
95.2685 100 56.074
94.9303 100 55.0306
94.7258 100 52.8748
95.8797 100 52.8198
95.2509 100 51.8021
102.453 100 46.7505
104.639 100 40.5075
107.396 100 41.4669
107.145 100 40.1076
108.543 100 41.7558
109.325 100 40.8148
110.787 100 40.7827
107.926 100 39.189
110.233 100 23.7276
109.429 100 24.3955
116.445 100 37.6175
113.224 100 39.2705
114.618 100 40.5277
116.654 100 39.9547
117.601 100 37.9239
117.638 100 40.2951
117.963 100 41.3576
123.392 100 46.8944
128.655 100 50.0715
128.667 100 51.5363
128.925 100 53.5177
131.9 100 54.6235
130.745 100 55.8895
129.823 100 56.465
130.695 100 60.4403
130.965 100 59.2418
137.992 100 76.9299
138.561 100 78.4404
139.968 100 79.7573
140.781 100 78.6382
142.031 100 78.0502
143.09 100 77.5116
144.052 100 77.2521
145.463 100 76.9281
146.38 100 76.3839
147.447 100 75.8008
149.528 100 76.1374
150.387 100 76.8785
151.477 100 76.3257
73.3578 100 77.1586
74.1882 100 77.8172
75.0497 100 77.1446
76.1194 100 76.5787
77.1299 100 77.2346
78.2183 100 77.7066
79.4429 100 78.1947
80.5498 100 78.6195
81.4869 100 79.0932
82.3895 100 78.4046
83.6733 100 79.3417
85.6353 100 78.1148
87.3269 100 78.8145
86.9523 100 74.6423
89.1845 100 75.6097
93.6717 100 57.25
95.8595 100 56.8947
97.0396 100 56.8015
96.3954 100 55.9626
95.2053 100 53.8039
96.3336 100 51.9141
98.4676 100 50.8151
102.855 100 45.6592
104.181 100 44.0123
105.714 100 40.8997
106.595 100 42.2574
108.12 100 44.0117
109.675 100 41.9052
112.265 100 39.8001
110.93 100 39.3739
114.424 100 39.1648
113.224 100 40.5457
115.741 100 40.8138
115.243 100 41.7762
116.897 100 41.1842
118.666 100 40.6266
119.059 100 41.6143
122.992 100 45.8473
126.059 100 51.8708
127.496 100 51.7282
128.178 100 52.6363
130.825 100 54.4961
128.754 100 56.5937
129.32 100 57.6605
130.522 100 57.3138
137.028 100 75.4877
140.312 100 70.7437
137.648 100 79.4614
139.587 100 78.551
141.713 100 79.1449
142.782 100 78.8261
143.809 100 79.4223
143.784 100 78.3579
145.425 100 77.9907
146.395 100 77.4932
147.375 100 77.0033
148.401 100 76.5551
149.249 100 77.2791
150.3 100 78.039
151.202 100 77.4998
72.3644 100 77.7248
73.1296 100 78.5604
75.2109 100 78.3342
76.1612 100 77.6825
77.2742 100 78.3194
77.4013 100 80.5244
79.1549 100 79.3816
80.6282 100 79.8567
81.6385 100 80.2863
82.4717 100 79.4755
86.2748 100 80.2381
86.6728 100 77.796
88.6666 100 79.9296
88.1573 100 74.9964
94.4338 100 58.2166
94.1753 100 56.2885
95.4798 100 57.9635
98.036 100 57.1445
95.9817 100 54.6024
97.0681 100 53.6125
97.2937 100 51.4894
99.944 100 52.0782
104.002 100 46.0643
105.431 100 42.1566
110.152 100 44.6776
108.726 100 42.9029
105.038 100 46.8591
110.119 100 42.8544
104.976 100 47.9645
106.292 100 46.3081
119.544 100 48.0409
117.234 100 47.5327
114.937 100 43.0207
116.036 100 46.9586
117.029 100 44.2862
116.181 100 42.3985
117.32 100 42.5222
121.352 100 46.941
123.113 100 48.339
126.749 100 52.8159
127.637 100 53.6327
129.755 100 54.503
128.075 100 55.721
127.936 100 57.7326
130.106 100 58.3777
129.907 100 59.4225
136.739 100 74.3671
130.814 100 77.6947
138.923 100 79.5287
141.645 100 80.2692
142.865 100 79.9632
143.967 100 80.6616
144.875 100 80.0011
145.892 100 78.969
146.768 100 79.7237
146.976 100 78.6249
148.209 100 77.7371
149.166 100 78.3798
151.355 100 78.7031
152.22 100 78.0828
72.0277 100 78.8861
73.3509 100 79.5839
74.2619 100 78.916
75.2635 100 79.3902
76.2104 100 78.8948
76.4414 100 80.0039
77.3068 100 79.4061
79.7864 100 80.5944
81.0175 100 81.1836
82.1408 100 81.4924
83.0235 100 80.6124
83.3939 100 81.9084
85.6737 100 79.2402
85.2465 100 80.7176
83.7773 100 82.9492
90.33 100 78.5565
95.439 100 60.0173
96.6025 100 57.7572
98.5553 100 55.1427
97.8711 100 56.096
98.0569 100 54.2025
97.9738 100 52.887
103.634 100 47.1139
104.92 100 43.1477
107.495 100 42.8982
109.08 100 44.5817
106.792 100 43.824
104.408 100 49.0191
105.796 100 48.5808
107.604 100 49.7567
118.514 100 47.4526
120.585 100 48.7473
121.301 100 49.6317
118.081 100 44.5181
117.306 100 45.3199
117.851 100 43.4755
118.513 100 42.6042
122.506 100 47.5153
125.473 100 52.8039
128.369 100 54.4315
127.12 100 54.6099
125.908 100 55.1284
126.488 100 57.2629
128.875 100 58.6418
131.102 100 76.4824
140.809 100 82.3261
140.135 100 80.8385
138.992 100 80.6614
141.312 100 81.3209
141.907 100 82.293
142.634 100 80.9958
144.95 100 81.1003
145.942 100 81.6645
145.854 100 80.4715
147.871 100 80.1921
147.947 100 79.0833
149.052 100 79.4603
150.125 100 79.0752
151.123 100 79.7924
152.452 100 79.3334
72.2917 100 80.407
73.2791 100 80.6992
74.3329 100 80.1628
75.4123 100 80.6631
76.3411 100 82.3205
74.4065 100 83.7157
76.3416 100 81.1466
78.5777 100 80.7875
79.3674 100 81.6607
78.4003 100 82.3037
81.3427 100 82.1892
81.2819 100 83.2632
82.2867 100 82.7468
82.9954 100 83.9334
84.4958 100 82.0401
88.5198 100 78.6848
96.4653 100 59.8427
96.6817 100 58.7785
98.9388 100 56.5827
[...]
POINT_DATA 1600
SCALARS mass double
LOOKUP_TABLE default
1
1
1
1
1
1
1
1
1
1
1
1
1
1
1
1
1
1
1
1
1
1
1
1
1
1
1
1
1
1
1
1
1
1
1
1
1
1
1
1
1
1
1
1
1
1
1
1
1
1
1
1
1
1
1
1
1
1
1
1
1
1
1
1
1
1
1
1
1
1
1
1
1
1
1
1
1
1
1
1
1
1
1
1
1
1
1
1
1
1
1
1
1
1
1
1
1
1
1
1
1
1
1
1
1
1
1
1
1
1
1
1
1
1
1
1
1
1
1
1
1
1
1
1
1
1
1
1
1
1
1
1
1
1
1
1
1
1
1
1
1
1
1
1
1
1
1
1
1
1
1
1
1
1
1
1
1
1
1
1
1
1
1
1
1
1
1
1
1
1
1
1
1
1
1
1
1
1
1
1
1
1
1
1
1
1
1
1
1
1
1
1
1
1
1
1
1
1
1
1
1
1
1
1
1
1
1
1
1
1
1
1
1
1
1
1
1
1
1
1
1
1
1
1
1
1
1
1
1
1
1
1
1
1
1
1
1
1
1
1
1
1
1
1
1
1
1
1
1
1
1
1
1
1
1
1
1
1
1
1
1
1
1
1
1
1
1
1
1
1
1
1
1
1
1
1
1
1
1
1
1
1
1
1
1
1
1
1
1
1
1
1
1
1
1
1
1
1
1
1
1
1
1
1
1
1
1
1
1
1
1
1
1
1
1
1
1
1
1
1
1
1
1
1
1
1
1
1
1
1
1
1
1
1
1
1
1
1
1
1
1
1
1
1
1
1
1
1
1
1
1
1
1
1
1
1
1
1
1
1
1
1
1
1
1
1
1
1
1
1
1
1
1
1
1
1
1
1
1
1
1
1
1
1
1
1
1
1
1
1
1
1
1
1
1
1
1
1
1
1
1
1
1
1
1
1
1
1
1
1
1
1
1
1
1
1
1
1
1
1
1
1
1
1
1
1
1
1
1
1
1
1
1
1
1
1
1
1
1
1
1
1
1
1
1
1
1
1
1
1
1
1
1
1
1
1
1
1
1
1
1
1
1
1
1
1
1
1
1
1
1
1
1
1
1
1
1
1
1
1
1
1
1
1
1
1
1
1
1
1
1
1
1
1
1
1
1
1
1
1
1
1
1
1
1
1
1
1
1
1
1
1
1
1
1
1
1
1
1
1
1
1
1
1
1
1
1
1
1
1
1
1
1
1
1
1
1
1
1
1
1
1
1
1
1
1
1
1
1
1
1
1
1
1
1
1
1
1
1
1
1
1
1
1
1
1
1
1
1
1
1
1
1
1
1
1
1
1
1
1
1
1
1
1
1
1
1
1
1
1
1
1
1
1
1
1
1
1
1
1
1
1
1
1
1
1
1
1
1
1
1
1
1
1
1
1
1
1
1
1
1
1
1
1
1
1
1
1
1
1
1
1
1
1
1
1
1
1
1
1
1
1
1
1
1
1
1
1
1
1
1
1
1
1
1
1
1
1
1
1
1
1
1
1
1
1
1
1
1
1
1
1
1
1
1
1
1
1
1
1
1
1
1
1
1
1
1
1
1
1
1
1
1
1
1
1
1
1
1
1
1
1
1
1
1
1
1
1
1
1
1
1
1
1
1
1
1
1
1
1
1
1
1
1
1
1
1
1
1
1
1
1
1
1
1
1
1
1
1
1
1
1
1
1
1
1
1
1
1
1
1
1
1
1
1
1
1
1
1
1
1
1
1
1
1
1
1
1
1
1
1
1
1
1
1
1
1
1
1
1
1
1
1
1
1
1
1
1
1
1
1
1
1
1
1
1
1
1
1
1
1
1
1
1
1
1
1
1
1
1
1
1
1
1
1
1
1
1
1
1
1
1
1
1
1
1
1
1
1
1
1
1
1
1
1
1
1
1
1
1
1
1
1
1
1
1
1
1
1
1
1
1
1
1
1
1
1
1
1
1
1
1
1
1
1
1
1
1
1
1
1
1
1
1
1
1
1
1
1
1
1
1
1
1
1
1
1
1
1
1
1
1
1
1
1
1
1
1
1
1
1
1
1
1
1
1
1
1
1
1
1
1
1
1
1
1
1
1
1
1
1
1
1
1
1
1
1
1
1
1
1
1
1
1
1
1
1
1
1
1
1
1
1
1
1
1
1
1
1
1
1
1
1
1
1
1
1
1
1
1
1
1
1
1
1
1
1
1
1
1
1
1
1
1
1
1
1
1
1
1
1
1
1
1
1
1
1
1
1
1
1
1
1
1
1
1
1
1
1
1
1
1
1
1
1
1
1
1
1
1
1
1
1
1
1
1
1
1
1
1
1
1
1
1
1
1
1
1
1
1
1
1
1
1
1
1
1
1
1
1
1
1
1
1
1
1
1
1
1
1
1
1
1
1
1
1
1
1
1
1
1
1
1
1
1
1
1
1
1
1
1
1
1
1
1
1
1
1
1
1
1
1
1
1
1
1
1
1
1
1
1
1
1
1
1
1
1
1
1
1
1
1
1
1
1
1
1
1
1
1
1
1
1
1
1
1
1
1
1
1
1
1
1
1
1
1
1
1
1
1
1
1
1
1
1
1
1
1
1
1
1
1
1
1
1
1
1
1
1
1
1
1
1
1
1
1
1
1
1
1
1
1
1
1
1
1
1
1
1
1
1
1
1
1
1
1
1
1
1
1
1
1
1
1
1
1
1
1
1
1
1
1
1
1
1
1
1
1
1
1
1
1
1
1
1
1
1
1
1
1
1
1
1
1
1
1
1
1
1
1
1
1
1
1
1
1
1
1
1
1
1
1
1
1
1
1
1
1
1
1
1
1
1
1
1
1
1
1
1
1
1
1
1
1
1
1
1
1
1
1
1
1
1
1
1
1
1
1
1
1
1
1
1
1
1
1
1
1
1
1
1
1
1
1
1
1
1
1
1
1
1
1
1
1
1
1
1
1
1
1
1
1
1
1
1
1
1
1
1
1
1
1
1
1
1
1
1
1
1
1
1
1
1
1
1
1
1
1
1
1
1
1
1
1
1
1
1
1
1
1
1
1
1
1
1
1
1
1
1
1
1
1
1
1
1
1
1
1
1
1
1
1
1
1
1
1
1
1
1
1
1
1
1
1
1
1
1
1
1
1
1
1
1
1
1
1
1
1
1
1
1
1
1
1
1
1
1
1
1
1
1
1
1
1
1
1
1
1
1
1
1
1
1
1
1
1
1
1
1
1
1
1
1
1
1
1
1
1
1
1
1
1
1
1
1
1
1
1
1
1
1
1
1
1
1
1
1
1
1
1
1
1
1
1
1
1
1
1
1
1
1
1
1
1
1
1
1
1
1
1
1
1
1
1
1
1
1
1
1
1
1
1
1
1
1
1
1
1
1
1
1
1
1
1
1
1
1
1
1
1
1
1
1
1
1
1
1
1
1
1
1
1
1
1
1
1
1
1
1
1
1
1
1
1
1
1
1
1
1
1
1
1
1
1
1
1
1
1
1
1
1
1
1
1
1
1
1
1
1
1
1
1
1
1
1
1
1
1
1
1
1
1
1
1
1
1
1
1
1
1
1
1
1
1
1
1
1
1
1
1
1
1
1
1
1
1
1
1
1
1
1
1
1
1
1
1
1
1
1
1
VECTORS force double
-5.34261 0 15.3252
2.93532 0 24.2821
-15.3634 0 -9.72672
7.65422 0 7.8254
-0.737686 0 7.23997
-43.3124 0 36.436
38.4571 0 -29.7573
23.7693 0 -17.6126
-12.1085 0 -16.5909
-3.06108 0 7.07254
-7.45286 0 -25.2885
-2.61704 0 28.1338
4.76262 0 9.24108
-2.92097 0 -18.9933
0 0 0
-40.7243 0 9.82072
-6.52773 0 -22.8914
8.97337 0 1.57885
0 0 0
9.0809 0 4.11112
2.43191 0 -13.6016
-10.4216 0 1.8932
2.52651 0 -92.1903
9.39636 0 11.1333
10.8646 0 -7.71364
-8.22439 0 -18.3714
2.58989 0 9.4876
-3.7251 0 4.25599
6.21648 0 -6.73011
2.99089 0 -9.60883
15.6652 0 33.9034
6.07097 0 -8.08789
-23.3736 0 -8.81483
-0.0944329 0 1.3557
2.7902 0 -5.67803
-7.65786 0 -8.49092
-8.07311 0 -11.4369
22.9133 0 -34.183
25.99 0 -8.70771
-8.9755 0 63.0786
-0.282073 0 -14.1597
0 0 0
-35.9613 0 10.9204
20.7047 0 25.3248
37.7182 0 18.6867
-7.12891 0 -7.06254
90.4098 0 -34.3948
4.34944 0 -4.76389
-47.3872 0 -8.62643
-68.6779 0 30.2208
4.64983 0 13.7234
-30.5021 0 25.6847
45.4858 0 -22.46
1.81355 0 11.7817
-16.8166 0 26.2868
4.83782 0 -8.38106
6.50136 0 15.017
3.48244 0 11.2681
2.19649 0 12.2742
-4.03548 0 21.5894
-7.39956 0 1.89071
19.2875 0 15.6083
-17.7579 0 12.5848
16.4196 0 -50.2786
48.6414 0 -20.401
-26.294 0 -14.1294
-8.11711 0 -37.327
-51.4197 0 55.6273
45.4298 0 -41.131
-3.21043 0 20.1506
8.1872 0 -21.0481
70.0405 0 25.8286
-4.83912 0 13.3668
52.2491 0 64.3804
55.3602 0 -10.6167
-50.7972 0 -22.5392
15.1006 0 9.18618
-34.9161 0 -4.49068
6.55788 0 -10.2734
-10.4716 0 -85.0381
19.0763 0 96.3279
0 0 0
-12.2586 0 11.5264
-46.3487 0 -31.3977
35.9964 0 50.7202
-1.45239 0 8.81178
4.37503 0 -4.35457
-4.85922 0 -1.7301
0 0 0
-20.9718 0 -20.5978
28.509 0 10.3743
0 0 0
43.9067 0 24.7632
63.4308 0 -21.0316
-26.2294 0 -32.3398
-24.5498 0 10.0415
-21.0931 0 5.46806
-1.24555 0 14.0182
0 0 0
-2.32673 0 7.73453
66.1562 0 -34.4791
-6.54097 0 4.67211
13.5217 0 10.5023
65.0444 0 -104.145
-10.6751 0 13.7558
-47.8094 0 69.8545
-16.392 0 -1.33859
19.601 0 11.928
15.962 0 -13.3121
-9.7321 0 12.575
2.46352 0 14.3708
18.7695 0 6.36623
5.04377 0 -23.0194
-0.508175 0 13.48
-13.9003 0 6.86053
20.196 0 -33.1418
27.5324 0 11.3996
-13.1753 0 -3.68451
-24.068 0 -3.54288
-15.2662 0 -3.72088
5.09724 0 -10.1794
-0.669857 0 -27.319
-26.6647 0 -7.19597
25.4397 0 15.8519
-21.8218 0 70.7636
-13.6339 0 -2.77817
14.0834 0 51.2716
6.44302 0 41.7532
-2.71179 0 -14.4413
2.18767 0 21.718
4.16367 0 27.0472
-34.6671 0 -24.494
-21.6183 0 -34.3713
-15.5484 0 -7.09351
-25.4512 0 -12.9233
-16.1456 0 1.08981
-2.7898 0 18.7768
-20.2818 0 50.0409
2.32723 0 6.71583
-5.68675 0 8.56868
-3.9616 0 18.1054
-2.2454 0 17.7759
46.2781 0 26.4609
5.77637 0 20.4485
0 0 0
-4.28176 0 13.6293
4.38909 0 3.40015
-4.42652 0 14.5677
15.7168 0 20.6992
13.6182 0 -11.0773
-88.4478 0 0.404535
36.9521 0 -24.0089
-13.0181 0 3.774
0 0 0
-0.250857 0 -4.50766
-5.25122 0 -2.25517
25.0279 0 34.6002
-40.7701 0 -9.3782
17.7549 0 4.23988
8.96128 0 20.4709
-9.26898 0 15.3699
-13.8196 0 13.9373
-50.7786 0 -5.47069
9.4605 0 5.41368
-6.73168 0 61.752
-4.89056 0 -0.741847
6.40161 0 11.4889
-14.6849 0 -24.7037
57.0687 0 26.305
-5.58658 0 -2.34033
12.7761 0 2.40661
-17.1232 0 -27.9836
-13.1866 0 -32.6041
-48.4176 0 2.85177
49.8468 0 -7.88225
1.3171 0 -30.5338
-67.9076 0 31.2481
19.4894 0 -55.7019
39.4315 0 25.9337
16.6276 0 24.5889
-10.0707 0 -32.1276
26.1469 0 4.4077
9.92579 0 14.4783
-25.2431 0 12.3324
-17.5056 0 -12.1409
51.9325 0 -6.18239
0.752835 0 22.5082
-6.48646 0 -17.9236
5.75151 0 -39.2519
-8.12266 0 4.01873
5.32089 0 -47.5906
-2.83091 0 7.00832
1.9702 0 4.38973
-20.9401 0 -2.39735
1.89246 0 -76.3129
10.4792 0 13.4688
-12.0201 0 -6.46748
11.8027 0 29.9047
-6.61645 0 1.16706
-6.28969 0 32.6568
12.3114 0 -0.719679
-3.69505 0 5.86898
-23.8603 0 -41.0056
3.83104 0 -10.1055
-18.1527 0 -1.21741
-2.05128 0 -11.302
-1.14299 0 9.54757
-16.2526 0 11.3203
16.9544 0 -44.3251
-3.2595 0 -4.87381
-59.4219 0 33.5735
0 0 0
-34.3491 0 -27.9149
-6.37643 0 -14.711
16.9484 0 -7.98286
-11.127 0 -6.37729
1.54891 0 -48.1576
1.30613 0 7.20908
-25.0312 0 -22.2106
-4.41626 0 9.17196
1.11785 0 -0.0648598
-36.3434 0 -48.431
7.58139 0 -11.3048
13.1162 0 2.13713
-18.2892 0 -2.30312
-1.44276 0 -23.9119
-14.4658 0 0.0926156
23.4397 0 -19.0049
69.4644 0 -160.553
-20.1886 0 -48.4756
29.4929 0 -29.9223
7.16378 0 44.3679
-13.9579 0 -51.5472
21.1682 0 26.1038
-45.2124 0 -24.9384
12.9095 0 8.45692
-31.24 0 -34.5267
19.9035 0 -4.76224
-20.2782 0 -11.1089
-24.3448 0 -1.09993
8.12439 0 -8.89387
43.2133 0 -10.2292
-26.2848 0 -66.943
37.3882 0 -15.6985
-29.6261 0 28.5119
-20.9086 0 -18.2736
31.4178 0 -11.9122
-44.5643 0 -24.5277
-3.42361 0 13.575
-2.10849 0 28.9174
69.4477 0 59.9907
-0.381821 0 22.1141
8.9989 0 -10.1198
6.93156 0 31.3096
-9.02919 0 -0.648338
13.9682 0 -10.2223
-51.0778 0 -65.7789
-12.2014 0 -15.0504
60.12 0 -115.987
-53.7375 0 87.7423
-9.97298 0 7.20125
18.9232 0 0.186482
5.07875 0 13.8001
13.8939 0 -6.96456
9.90478 0 -1.97511
-1.99342 0 -9.30804
-9.84564 0 14.9056
-8.53801 0 -6.5613
-14.8454 0 25.9314
38.6315 0 -34.7228
-41.1529 0 25.7232
14.2071 0 15.8069
21.1125 0 6.77145
10.3117 0 -7.79315
-26.9116 0 -0.160946
-21.8972 0 7.59385
31.9762 0 13.263
-45.8859 0 89.0004
11.5098 0 -2.52948
-8.35821 0 16.0694
-10.5437 0 7.98473
20.5021 0 -26.7354
28.3973 0 -27.503
-6.55313 0 -5.61139
0.581351 0 9.45493
9.70951 0 -10.8772
25.8872 0 -4.53973
38.6976 0 14.1361
-143.554 0 156.198
19.6342 0 -17.7643
-41.5856 0 -25.7295
19.9573 0 13.7732
-154.964 0 98.398
135.962 0 -41.4665
-43.3563 0 -23.6704
61.1982 0 -9.46347
-0.0387168 0 49.1607
8.94151 0 13.7838
-61.3061 0 -51.3459
-6.93523 0 10.8783
-63.7704 0 47.2928
11.5252 0 19.5399
21.3442 0 32.4772
9.31922 0 24.3343
25.5528 0 -39.4204
6.75035 0 -16.6973
-1.81366 0 8.11781
-51.1595 0 -2.3775
3.40715 0 17.9992
53.9832 0 12.9368
-71.1523 0 -32.2118
8.45434 0 21.7198
6.00588 0 -18.2965
0.256741 0 13.4577
-20.1649 0 7.20044
5.66339 0 7.85569
68.7829 0 98.852
-16.3205 0 -8.61839
-11.1996 0 -51.206
11.7503 0 39.6618
36.8169 0 14.9518
-14.4177 0 -31.0562
12.7448 0 13.2108
13.4428 0 -2.14163
-1.82068 0 6.69958
-15.1293 0 -1.72663
-11.2674 0 -23.6894
-29.0647 0 -43.5381
-9.19165 0 10.6345
25.1581 0 -0.781088
-0.649905 0 16.7445
0.482669 0 -20.0184
25.2801 0 5.09273
-10.6472 0 16.7495
-28.7448 0 -9.66947
66.7481 0 -60.5022
12.0617 0 37.0958
-1.63049 0 2.58675
-6.15432 0 41.1493
-8.18821 0 11.8705
5.22803 0 -4.35339
10.4373 0 -10.2389
-14.2731 0 24.2206
-10.9774 0 -59.2653
-4.6283 0 19.1724
-40.8647 0 5.04479
0 0 0
8.10607 0 -17.593
35.8362 0 73.7368
32.4018 0 15.7409
19.939 0 15.0316
14.5376 0 34.5076
12.1891 0 -26.8431
-22.7961 0 19.9661
19.1317 0 22.7269
-2.27583 0 -20.7295
-5.34396 0 17.3452
20.6721 0 -10.4889
-36.2797 0 -24.2806
103.248 0 29.0628
6.68585 0 8.81876
4.86482 0 -53.9847
4.75192 0 -51.2094
-30.5219 0 32.2566
-18.9486 0 -4.28569
8.63215 0 -35.105
10.6754 0 -0.0115392
-4.70929 0 -14.0199
29.7901 0 -11.5195
44.5669 0 47.4503
9.30542 0 -120.248
18.4097 0 7.93348
12.7983 0 -5.25876
-7.25542 0 13.8685
-25.5552 0 -12.7206
-17.6542 0 -65.6981
41.802 0 6.08104
10.1249 0 68.7023
4.01249 0 7.5062
-0.796454 0 -3.26797
27.3803 0 -22.2369
63.8604 0 -39.7706
-11.4092 0 18.7797
16.0852 0 -13.8702
19.5857 0 -0.338544
-4.85722 0 -2.7825
-6.91766 0 -13.2895
8.44976 0 41.256
-60.6176 0 -31.9031
-11.777 0 12.2561
48.2699 0 -24.2602
3.92248 0 -4.51418
11.0101 0 -15.3322
9.85258 0 3.95033
-19.3983 0 -36.0956
2.09763 0 -5.74709
3.22722 0 -25.746
22.4006 0 1.69344
36.0527 0 57.6332
1.46102 0 -2.29552
-10.4438 0 -28.5785
-35.6458 0 -14.213
-4.50784 0 -19.0327
14.5528 0 8.73377
35.2978 0 -5.61718
-29.531 0 32.6364
6.94188 0 9.33161
26.1525 0 28.2442
-31.1549 0 -16.6752
18.5872 0 -4.20005
-11.8053 0 -27.7585
-37.5351 0 -20.5896
-18.9072 0 -23.7058
12.1398 0 24.22
6.65283 0 14.762
-25.0746 0 -25.2823
7.05894 0 5.68415
7.23297 0 -5.48969
-36.1433 0 6.29957
14.5388 0 -9.91586
16.159 0 -5.22369
4.22364 0 46.4731
-16.2681 0 16.1795
-15.6205 0 71.6701
37.5587 0 -24.1218
-63.407 0 21.6754
24.1614 0 -13.4505
-8.57559 0 2.63018
-21.4844 0 -33.2667
32.6903 0 -27.4548
-13.7631 0 -1.38239
-25.6335 0 -11.3426
-11.8292 0 7.4939
-59.8533 0 -39.3572
4.63955 0 23.4978
0.904794 0 44.175
-40.2439 0 14.6497
-18.4909 0 -38.2235
20.102 0 43.1594
12.5618 0 -43.2778
-19.0686 0 -39.4112
-10.6045 0 25.8641
-7.39277 0 6.74035
-139.19 0 5.15877
16.1783 0 9.78304
-19.2627 0 -4.36167
8.55967 0 -3.96822
-5.4666 0 -12.9284
42.3063 0 51.8655
6.47433 0 1.08642
-0.993052 0 14.3478
19.4993 0 -27.9033
-0.0938083 0 -5.54155
24.0424 0 29.2272
5.08682 0 25.1609
-27.2513 0 -7.44016
5.2323 0 -7.1719
-72.4494 0 -51.3313
11.1349 0 9.95306
-7.14729 0 43.7139
-5.90217 0 2.82608
7.16092 0 -2.89521
51.4108 0 -13.6175
4.82616 0 13.6401
-4.49222 0 20.335
-30.5492 0 -4.89902
8.72031 0 15.9853
10.0454 0 -6.2018
-1.18455 0 4.71909
-15.7394 0 -10.777
-12.0528 0 44.1076
6.78326 0 40.7115
4.62096 0 -10.7332
38.4296 0 6.59951
0.470525 0 13.4594
28.1483 0 0.810089
-3.68417 0 27.943
1.75753 0 38.8824
-7.13409 0 -12.7536
-21.3285 0 -14.3719
-53.6262 0 -29.1568
63.2544 0 19.9425
6.75499 0 -22.9291
-50.3733 0 -27.4599
-3.95758 0 -12.7207
13.9574 0 -7.87504
49.3196 0 26.7033
-0.0797239 0 6.86233
-9.14383 0 -5.80661
4.91845 0 -9.41193
-21.707 0 29.7217
-27.702 0 2.83132
20.2476 0 2.48086
-47.6057 0 -20.4496
5.14263 0 6.79933
-3.71909 0 15.2916
69.3265 0 1.08129
5.70414 0 57.4695
20.4162 0 -24.2557
13.0678 0 -3.5196
-5.89899 0 3.3066
8.54541 0 -2.28873
13.4805 0 -21.0615
-18.5053 0 16.0577
8.84619 0 4.52573
148.944 0 -22.9057
14.7035 0 -1.52573
5.51606 0 15.2896
-8.51605 0 -10.5023
-3.04779 0 8.18871
-12.8547 0 -6.12395
-42.0294 0 33.8148
-160.907 0 -150.002
-7.88892 0 5.29712
20.497 0 -18.8837
57.8173 0 -6.92419
-23.9111 0 -1.27172
-5.18245 0 16.4449
21.071 0 -18.6755
3.31297 0 19.3879
12.7219 0 -15.3804
14.3266 0 60.2031
-2.45747 0 -5.9771
-8.97907 0 -13.9076
13.0453 0 0.478809
4.35984 0 14.0813
-192.691 0 9.8376
195.566 0 -8.04699
5.22157 0 -23.0669
31.7597 0 -18.5299
-92.1883 0 -31.2462
9.21636 0 -12.362
-7.73355 0 -17.8701
17.0344 0 67.294
-14.4902 0 -11.0862
99.746 0 32.493
27.5579 0 -65.2
7.1994 0 5.01269
24.2392 0 13.7828
-23.1372 0 10.996
-6.32642 0 -14.8058
22.5406 0 0.834864
31.2161 0 26.4287
-17.9191 0 1.0467
5.43585 0 -2.1215
0.610396 0 55.5183
12.4516 0 -15.9979
-3.85474 0 -8.69642
-38.0499 0 17.3112
-5.22772 0 4.99834
-54.8059 0 -12.7296
76.2411 0 11.0408
-1.94176 0 12.9778
44.1236 0 34.0386
34.3307 0 29.5376
10.5843 0 16.1467
-1.76855 0 -12.8825
-4.03349 0 -1.78707
-42.3078 0 -14.0302
-7.19834 0 -3.13114
9.34644 0 2.61431
-18.8736 0 3.47393
-51.4038 0 61.719
21.8981 0 79.0041
-4.44378 0 -14.8793
8.58083 0 13.2713
60.497 0 -122.42
5.45212 0 -2.48273
2.58531 0 5.28966
-17.7506 0 25.3277
12.6685 0 -14.2362
6.49259 0 -18.444
106.994 0 182.089
44.2677 0 22.0874
-22.7174 0 -7.27978
99.9397 0 56.1269
-3.36294 0 -2.55098
-1.69212 0 -1.31419
-14.4658 0 41.854
32.4928 0 -45.1705
-67.9642 0 -30.6702
-3.97089 0 3.72018
-29.5037 0 8.75662
3.69645 0 11.0869
13.0346 0 -19.8996
10.4495 0 14.5868
-1.74732 0 -23.5632
-19.8963 0 17.3404
-52.1895 0 13.4268
37.2097 0 -16.1803
-34.6965 0 3.3374
-20.6664 0 -3.27369
-0.850582 0 1.47358
31.8222 0 25.0837
-51.9414 0 0.261203
-50.994 0 17.5575
-11.8911 0 15.028
-43.8683 0 5.81986
64.266 0 -31.0926
-17.0526 0 -14.3312
-18.6019 0 -12.1139
4.59932 0 14.5488
17.1341 0 3.37356
3.12038 0 8.10581
-5.80503 0 -5.55822
7.75279 0 22.8028
6.46779 0 4.06913
7.82827 0 17.3589
-9.89936 0 7.44958
-2.17648 0 -0.194531
6.09267 0 17.3851
-24.2398 0 -11.3575
30.4332 0 -25.6129
5.17745 0 -0.0594636
-0.16966 0 4.42599
12.1317 0 -16.6244
-31.4925 0 12.434
6.3372 0 -11.4014
-18.4267 0 -38.955
8.33946 0 5.83501
-4.7352 0 7.75673
-19.0631 0 12.4711
4.9998 0 -31.786
-19.6044 0 -95.8091
15.0087 0 22.5674
-19.4549 0 -19.3981
-55.918 0 129.286
17.2452 0 6.62641
28.6793 0 -20.9979
5.95054 0 13.8081
-20.2412 0 -7.16929
-55.5303 0 14.1661
10.1379 0 8.45326
-9.75832 0 -32.1515
1.36755 0 -16.7344
-9.87936 0 5.86387
-5.2893 0 10.8024
-17.6591 0 -23.0145
-6.46304 0 16.4672
24.237 0 -17.603
-5.14889 0 -11.795
11.8978 0 24.8519
-25.6369 0 38.2796
4.03059 0 -26.4269
16.6728 0 32.2442
-0.984692 0 -4.15164
6.08879 0 -8.0631
8.66114 0 9.90095
11.9353 0 6.01172
-24.7396 0 -22.3949
47.3942 0 -7.03554
16.6583 0 -25.6092
-45.8897 0 -245.909
74.2127 0 2.6416
-2.06128 0 12.4444
-35.4202 0 -13.4329
44.1777 0 2.2568
-40.7227 0 17.9529
19.9789 0 -5.38161
2.17516 0 -9.19169
10.4071 0 -19.7501
16.1659 0 4.86766
-1.06633 0 25.7074
8.68012 0 -18.4474
18.0733 0 -0.856509
0.0937134 0 4.16303
3.14409 0 -32.8125
-5.5157 0 10.0538
-90.2536 0 -4.1207
-11.7645 0 -51.1736
-6.83012 0 -11.7754
-1.05488 0 10.0208
-33.5147 0 4.18679
-3.44473 0 -16.5007
-8.99905 0 -15.1241
19.398 0 -24.7338
54.1701 0 159.315
32.1079 0 0.0480497
-60.25 0 -22.268
42.4713 0 58.955
6.65356 0 -41.6428
-13.7566 0 9.43363
7.59498 0 -93.7081
-145.694 0 0.84539
34.9589 0 -28.8285
11.247 0 -13.594
-20.4762 0 -26.7194
-11.5543 0 10.9065
-40.564 0 -5.86451
10.0857 0 -36.6052
-11.9341 0 18.6074
12.647 0 -40.8014
-30.2259 0 57.9014
-18.7306 0 -12.3311
18.9728 0 -3.53936
-18.8902 0 -11.3818
6.30293 0 -17.0452
44.0671 0 -84.5161
-2.85237 0 52.4782
-16.791 0 10.2346
32.3528 0 -28.2586
-9.93597 0 2.99982
0.676676 0 0.795782
-13.3854 0 -22.4504
-5.88545 0 -2.17408
-3.41387 0 -13.7446
-12.6457 0 24.9916
-45.2291 0 -25.4756
22.0674 0 21.6347
43.3396 0 -11.1449
13.1165 0 -1.19377
-162.654 0 26.8768
-31.1092 0 228.619
-4.05671 0 8.72629
-22.8091 0 -6.24607
12.254 0 -26.1588
-23.2186 0 11.352
-20.5654 0 -3.97842
9.00221 0 -4.0248
-0.832423 0 1.25015
19.913 0 7.41269
-4.52541 0 9.41494
0.970849 0 8.0563
-12.5074 0 19.8627
17.7759 0 -8.64164
-49.9958 0 10.1331
-11.1613 0 5.97747
-21.3833 0 -22.6781
12.3859 0 -1.45845
96.1068 0 -16.0523
12.9205 0 30.3656
58.032 0 -28.1508
31.6283 0 30.4814
-15.7334 0 -4.14282
-17.8764 0 12.3779
7.88222 0 101.945
-9.74778 0 77.852
7.36546 0 -8.92049
15.7486 0 0.0926514
21.4166 0 48.0541
2.51052 0 -3.10691
-11.1339 0 46.6226
-0.104624 0 18.1428
-32.6674 0 -10.7722
-5.5813 0 -6.44526
28.5128 0 -0.829668
132.203 0 7.48837
-23.6342 0 17.1906
22.72 0 -5.8668
1.31652 0 -19.1342
17.2387 0 11.4875
-0.682858 0 21.0596
-4.36708 0 -8.9466
-1.7531 0 10.5497
0.890005 0 -19.676
-77.9519 0 -57.373
-19.4041 0 56.479
-33.9419 0 76.1404
-45.0593 0 1.82681
-11.3839 0 7.2109
10.2479 0 16.5363
0.651609 0 -0.382609
1.44923 0 11.5436
-0.684252 0 21.8782
24.6531 0 7.28465
17.0481 0 -0.994114
43.7426 0 138.311
30.9994 0 0.87483
-13.6399 0 72.9477
67.2131 0 -111.523
37.6918 0 -39.1563
12.1613 0 -63.0354
-0.311289 0 5.48103
-4.07044 0 10.6019
154.969 0 -11.7453
9.28168 0 17.0958
5.95385 0 12.5762
-6.73237 0 1.09456
-5.9176 0 16.954
-10.423 0 13.2224
-46.6825 0 -13.112
11.6367 0 4.75597
-13.6816 0 -11.2137
15.4419 0 2.7342
-2.51959 0 5.71543
-60.2289 0 -52.8808
-1.77171 0 -2.23723
16.1646 0 22.3821
31.8374 0 11.7387
-30.2721 0 -20.4606
30.3256 0 -20.0469
98.5655 0 27.0937
-98.7472 0 -96.753
-61.0068 0 7.66382
-32.2551 0 2.71387
10.9195 0 2.34624
-8.98972 0 -15.3294
-4.39086 0 6.2304
-9.37029 0 11.462
5.97732 0 35.5942
-44.5037 0 -1.70749
0.0744527 0 -39.0321
6.13399 0 1.11181
-6.91188 0 -0.679883
31.7889 0 64.5974
-19.8177 0 -0.0672439
10.3693 0 26.3728
6.23666 0 -2.29391
-0.171376 0 0.151699
6.88292 0 -6.06756
13.3232 0 9.89873
-2.17273 0 20.9408
6.34992 0 -37.0842
3.38162 0 -1.58941
-22.0202 0 20.4084
7.60587 0 4.2006
8.05772 0 -7.96358
13.2157 0 -49.5018
12.3892 0 0.754974
-10.1644 0 2.67009
-23.2586 0 -53.0173
-7.50809 0 -53.2445
-8.41624 0 -7.40761
-1.71373 0 4.77395
8.33681 0 2.52014
-5.09565 0 -17.8851
-4.27047 0 -11.5867
-38.7749 0 -95.3589
-71.0646 0 98.8419
-16.1435 0 18.032
14.5075 0 21.5007
-15.2422 0 4.17285
-25.2157 0 41.2071
-1.22633 0 -7.98156
-101.097 0 -120.349
37.4786 0 -12.3395
74.5791 0 128.77
3.16343 0 0.0225943
-2.65351 0 9.08516
-20.9781 0 -12.0451
-29.1565 0 -21.7441
30.0877 0 -17.9201
10.2714 0 37.9091
37.2194 0 3.29648
-18.4361 0 -38.9864
18.7839 0 -8.78334
-12.4882 0 19.0866
-6.19015 0 -6.4161
-13.4203 0 -7.51928
-23.8907 0 3.18097
-5.82113 0 7.60427
9.35635 0 27.5595
-41.4352 0 -1.7009
80.7945 0 3.14264
-1.61481 0 18.7303
41.1293 0 38.3481
-17.1692 0 43.958
29.1768 0 -41.9537
-4.80425 0 10.3804
6.73445 0 -2.63444
19.2489 0 -13.6422
-11.6818 0 -4.56585
-14.5888 0 -2.6446
21.2609 0 -3.88324
-5.2966 0 -9.74729
-13.1245 0 -73.4962
-14.1611 0 3.13423
-0.774744 0 0.29999
-6.90034 0 6.1071
5.7701 0 6.25401
1.31378 0 -18.4738
-14.637 0 8.57502
61.8292 0 -11.2669
17.0037 0 -24.4942
4.88347 0 16.0103
31.6503 0 17.803
0.712782 0 -6.04929
-0.327075 0 -4.38134
1.24949 0 -3.16761
16.2709 0 -31.4366
-13.2517 0 -8.67369
-6.24627 0 -19.5833
-27.4885 0 48.7015
-44.0623 0 -151.971
5.13219 0 -19.1457
37.0122 0 22.1014
-108.412 0 151.792
-8.66783 0 -58.5161
52.4365 0 -39.5914
-12.3981 0 -35.1789
-8.48652 0 0.344584
2.28108 0 1.13994
2.27679 0 7.2477