# vtk DataFile Version 3.0
SiWiRVisFile
ASCII
DATASET UNSTRUCTURED_GRID
POINTS 1600 DOUBLE
79.1776 100 76.2172
80.288 100 76.2607
81.3973 100 76.2567
82.5072 100 76.2548
83.6235 100 76.2538
84.745 100 76.2536
85.8681 100 76.2534
86.9908 100 76.2534
88.1133 100 76.2534
89.2357 100 76.2534
90.3582 100 76.2534
91.4807 100 76.2534
92.6031 100 76.2534
93.7256 100 76.2534
94.848 100 76.2534
95.9705 100 76.2534
97.093 100 76.2534
98.2154 100 76.2534
99.3379 100 76.2534
100.46 100 76.2534
101.583 100 76.2534
102.705 100 76.2534
103.828 100 76.2534
104.95 100 76.2534
106.073 100 76.2534
107.195 100 76.2534
108.318 100 76.2534
109.44 100 76.2534
110.563 100 76.2534
111.685 100 76.2534
112.807 100 76.2534
113.93 100 76.2534
115.052 100 76.2534
116.175 100 76.2534
117.297 100 76.2534
118.42 100 76.2534
119.542 100 76.2534
120.665 100 76.2534
121.787 100 76.2534
122.91 100 76.2534
124.032 100 76.2534
125.155 100 76.2534
126.277 100 76.2534
127.399 100 76.2534
128.522 100 76.2534
129.644 100 76.2534
130.767 100 76.2534
131.889 100 76.2534
133.012 100 76.2534
134.134 100 76.2534
135.257 100 76.2534
136.379 100 76.2534
137.502 100 76.2534
138.624 100 76.2534
139.747 100 76.2536
140.869 100 76.2538
141.985 100 76.2548
143.095 100 76.2567
144.204 100 76.2607
145.315 100 76.2172
79.2211 100 77.3276
80.3219 100 77.3616
81.42 100 77.3581
82.5153 100 77.3567
83.6245 100 77.3564
84.745 100 77.3563
85.8681 100 77.3564
86.9908 100 77.3564
88.1133 100 77.3564
89.2357 100 77.3564
90.3582 100 77.3564
91.4807 100 77.3564
92.6031 100 77.3564
93.7256 100 77.3564
94.848 100 77.3564
95.9705 100 77.3564
97.093 100 77.3564
98.2154 100 77.3564
99.3379 100 77.3564
100.46 100 77.3564
101.583 100 77.3564
102.705 100 77.3564
103.828 100 77.3564
104.95 100 77.3564
106.073 100 77.3564
107.195 100 77.3564
108.318 100 77.3564
109.44 100 77.3564
110.563 100 77.3564
111.685 100 77.3564
112.807 100 77.3564
113.93 100 77.3564
115.052 100 77.3564
116.175 100 77.3564
117.297 100 77.3564
118.42 100 77.3564
119.542 100 77.3564
120.665 100 77.3564
121.787 100 77.3564
122.91 100 77.3564
124.032 100 77.3564
125.155 100 77.3564
126.277 100 77.3564
127.399 100 77.3564
128.522 100 77.3564
129.644 100 77.3564
130.767 100 77.3564
131.889 100 77.3564
133.012 100 77.3564
134.134 100 77.3564
135.257 100 77.3564
136.379 100 77.3564
137.502 100 77.3564
138.624 100 77.3564
139.747 100 77.3563
140.868 100 77.3564
141.977 100 77.3567
143.072 100 77.3581
144.17 100 77.3616
145.271 100 77.3276
79.2171 100 78.437
80.3185 100 78.4597
81.417 100 78.4567
82.5137 100 78.4558
83.6247 100 78.4556
84.7458 100 78.4556
85.8684 100 78.4556
86.9908 100 78.4556
88.1133 100 78.4556
89.2357 100 78.4556
90.3582 100 78.4556
91.4807 100 78.4556
92.6031 100 78.4556
93.7256 100 78.4556
94.848 100 78.4556
95.9705 100 78.4556
97.093 100 78.4556
98.2154 100 78.4556
99.3379 100 78.4556
100.46 100 78.4556
101.583 100 78.4556
102.705 100 78.4556
103.828 100 78.4556
104.95 100 78.4556
106.073 100 78.4556
107.195 100 78.4556
108.318 100 78.4556
109.44 100 78.4556
110.563 100 78.4556
111.685 100 78.4556
112.807 100 78.4556
113.93 100 78.4556
115.052 100 78.4556
116.175 100 78.4556
117.297 100 78.4556
118.42 100 78.4556
119.542 100 78.4556
120.665 100 78.4556
121.787 100 78.4556
122.91 100 78.4556
124.032 100 78.4556
125.155 100 78.4556
126.277 100 78.4556
127.399 100 78.4556
128.522 100 78.4556
129.644 100 78.4556
130.767 100 78.4556
131.889 100 78.4556
133.012 100 78.4556
134.134 100 78.4556
135.257 100 78.4556
136.379 100 78.4556
137.502 100 78.4556
138.624 100 78.4556
139.747 100 78.4556
140.868 100 78.4556
141.979 100 78.4558
143.075 100 78.4567
144.174 100 78.4597
145.275 100 78.437
79.2151 100 79.5469
80.3171 100 79.5549
81.4162 100 79.5533
82.5131 100 79.5528
83.6247 100 79.5527
84.7459 100 79.5527
85.8683 100 79.5527
86.9908 100 79.5527
88.1133 100 79.5527
89.2357 100 79.5527
90.3582 100 79.5527
91.4807 100 79.5527
92.6031 100 79.5527
93.7256 100 79.5527
94.848 100 79.5527
95.9705 100 79.5527
97.093 100 79.5527
98.2154 100 79.5527
99.3379 100 79.5527
100.46 100 79.5527
101.583 100 79.5527
102.705 100 79.5527
103.828 100 79.5527
104.95 100 79.5527
106.073 100 79.5527
107.195 100 79.5527
108.318 100 79.5527
109.44 100 79.5527
110.563 100 79.5527
111.685 100 79.5527
112.807 100 79.5527
113.93 100 79.5527
115.052 100 79.5527
116.175 100 79.5527
117.297 100 79.5527
118.42 100 79.5527
119.542 100 79.5527
120.665 100 79.5527
121.787 100 79.5527
122.91 100 79.5527
124.032 100 79.5527
125.155 100 79.5527
126.277 100 79.5527
127.399 100 79.5527
128.522 100 79.5527
129.644 100 79.5527
130.767 100 79.5527
131.889 100 79.5527
133.012 100 79.5527
134.134 100 79.5527
135.257 100 79.5527
136.379 100 79.5527
137.502 100 79.5527
138.624 100 79.5527
139.747 100 79.5527
140.868 100 79.5527
141.979 100 79.5528
143.076 100 79.5533
144.175 100 79.5549
145.277 100 79.5469
79.2142 100 80.6632
80.3167 100 80.6642
81.416 100 80.6644
82.513 100 80.6643
83.6248 100 80.6644
84.746 100 80.6645
85.8684 100 80.6645
86.9908 100 80.6645
88.1133 100 80.6645
89.2357 100 80.6645
90.3582 100 80.6645
91.4807 100 80.6645
92.6031 100 80.6645
93.7256 100 80.6645
94.848 100 80.6645
95.9705 100 80.6645
97.093 100 80.6645
98.2154 100 80.6645
99.3379 100 80.6645
100.46 100 80.6645
101.583 100 80.6645
102.705 100 80.6645
103.828 100 80.6645
104.95 100 80.6645
106.073 100 80.6645
107.195 100 80.6645
108.318 100 80.6645
109.44 100 80.6645
110.563 100 80.6645
111.685 100 80.6645
112.807 100 80.6645
113.93 100 80.6645
115.052 100 80.6645
116.175 100 80.6645
117.297 100 80.6645
118.42 100 80.6645
119.542 100 80.6645
120.665 100 80.6645
121.787 100 80.6645
122.91 100 80.6645
124.032 100 80.6645
125.155 100 80.6645
126.277 100 80.6645
127.399 100 80.6645
128.522 100 80.6645
129.644 100 80.6645
130.767 100 80.6645
131.889 100 80.6645
133.012 100 80.6645
134.134 100 80.6645
135.257 100 80.6645
136.379 100 80.6645
137.502 100 80.6645
138.624 100 80.6645
139.746 100 80.6645
140.868 100 80.6644
141.979 100 80.6643
143.076 100 80.6644
144.176 100 80.6642
145.278 100 80.6632
79.214 100 81.7847
80.3166 100 81.7847
81.4159 100 81.7854
82.513 100 81.7855
83.6248 100 81.7857
84.7461 100 81.7857
85.8684 100 81.7857
86.9908 100 81.7857
88.1133 100 81.7857
89.2357 100 81.7857
90.3582 100 81.7857
91.4807 100 81.7857
92.6031 100 81.7857
93.7256 100 81.7857
94.848 100 81.7857
95.9705 100 81.7857
97.093 100 81.7857
98.2154 100 81.7857
99.3379 100 81.7857
100.46 100 81.7857
101.583 100 81.7857
102.705 100 81.7857
103.828 100 81.7857
104.95 100 81.7857
106.073 100 81.7857
107.195 100 81.7857
108.318 100 81.7857
109.44 100 81.7857
110.563 100 81.7857
111.685 100 81.7857
112.807 100 81.7857
113.93 100 81.7857
115.052 100 81.7857
116.175 100 81.7857
117.297 100 81.7857
118.42 100 81.7857
119.542 100 81.7857
120.665 100 81.7857
121.787 100 81.7857
122.91 100 81.7857
124.032 100 81.7857
125.155 100 81.7857
126.277 100 81.7857
127.399 100 81.7857
128.522 100 81.7857
129.644 100 81.7857
130.767 100 81.7857
131.889 100 81.7857
133.012 100 81.7857
134.134 100 81.7857
135.257 100 81.7857
136.379 100 81.7857
137.502 100 81.7857
138.624 100 81.7857
139.746 100 81.7857
140.868 100 81.7857
141.979 100 81.7855
143.076 100 81.7854
144.176 100 81.7847
145.278 100 81.7847
79.2137 100 82.9078
80.3167 100 82.9078
81.416 100 82.908
82.5131 100 82.908
83.6248 100 82.908
84.7461 100 82.908
85.8684 100 82.908
86.9908 100 82.908
88.1133 100 82.908
89.2357 100 82.908
90.3582 100 82.908
91.4807 100 82.908
92.6031 100 82.908
93.7256 100 82.908
94.848 100 82.908
95.9705 100 82.908
97.093 100 82.908
98.2154 100 82.908
99.3379 100 82.908
100.46 100 82.908
101.583 100 82.908
102.705 100 82.908
103.828 100 82.908
104.95 100 82.908
106.073 100 82.908
107.195 100 82.908
108.318 100 82.908
109.44 100 82.908
110.563 100 82.908
111.685 100 82.908
112.807 100 82.908
113.93 100 82.908
115.052 100 82.908
116.175 100 82.908
117.297 100 82.908
118.42 100 82.908
119.542 100 82.908
120.665 100 82.908
121.787 100 82.908
122.91 100 82.908
124.032 100 82.908
125.155 100 82.908
126.277 100 82.908
127.399 100 82.908
128.522 100 82.908
129.644 100 82.908
130.767 100 82.908
131.889 100 82.908
133.012 100 82.908
134.134 100 82.908
135.257 100 82.908
136.379 100 82.908
137.502 100 82.908
138.624 100 82.908
139.746 100 82.908
140.868 100 82.908
141.979 100 82.908
143.076 100 82.908
144.176 100 82.9078
145.279 100 82.9078
79.2137 100 84.0304
80.3167 100 84.0304
81.416 100 84.0305
82.5131 100 84.0305
83.6248 100 84.0305
84.7461 100 84.0305
85.8684 100 84.0305
86.9908 100 84.0305
88.1133 100 84.0305
89.2357 100 84.0305
90.3582 100 84.0305
91.4807 100 84.0305
92.6031 100 84.0305
93.7256 100 84.0305
94.848 100 84.0305
95.9705 100 84.0305
97.093 100 84.0305
98.2154 100 84.0305
99.3379 100 84.0305
100.46 100 84.0305
101.583 100 84.0305
102.705 100 84.0305
103.828 100 84.0305
104.95 100 84.0305
106.073 100 84.0305
107.195 100 84.0305
108.318 100 84.0305
109.44 100 84.0305
110.563 100 84.0305
111.685 100 84.0305
112.807 100 84.0305
113.93 100 84.0305
115.052 100 84.0305
116.175 100 84.0305
117.297 100 84.0305
118.42 100 84.0305
119.542 100 84.0305
120.665 100 84.0305
121.787 100 84.0305
122.91 100 84.0305
124.032 100 84.0305
125.155 100 84.0305
126.277 100 84.0305
127.399 100 84.0305
128.522 100 84.0305
129.644 100 84.0305
130.767 100 84.0305
131.889 100 84.0305
133.012 100 84.0305
134.134 100 84.0305
135.257 100 84.0305
136.379 100 84.0305
137.502 100 84.0305
138.624 100 84.0305
139.746 100 84.0305
140.868 100 84.0305
141.979 100 84.0305
143.076 100 84.0305
144.176 100 84.0304
145.279 100 84.0304
79.2137 100 85.1529
80.3167 100 85.1529
81.4159 100 85.1529
82.5131 100 85.1529
83.6248 100 85.1529
84.7461 100 85.1529
85.8684 100 85.1529
86.9908 100 85.1529
88.1133 100 85.1529
89.2357 100 85.1529
90.3582 100 85.1529
91.4807 100 85.1529
92.6031 100 85.1529
93.7256 100 85.1529
94.848 100 85.1529
95.9705 100 85.1529
97.093 100 85.1529
98.2154 100 85.1529
99.3379 100 85.1529
100.46 100 85.1529
101.583 100 85.1529
102.705 100 85.1529
[...]
POINT_DATA 1600
SCALARS mass double
LOOKUP_TABLE default
1
1
1
1
1
1
1
1
1
1
1
1
1
1
1
1
1
1
1
1
1
1
1
1
1
1
1
1
1
1
1
1
1
1
1
1
1
1
1
1
1
1
1
1
1
1
1
1
1
1
1
1
1
1
1
1
1
1
1
1
1
1
1
1
1
1
1
1
1
1
1
1
1
1
1
1
1
1
1
1
1
1
1
1
1
1
1
1
1
1
1
1
1
1
1
1
1
1
1
1
1
1
1
1
1
1
1
1
1
1
1
1
1
1
1
1
1
1
1
1
1
1
1
1
1
1
1
1
1
1
1
1
1
1
1
1
1
1
1
1
1
1
1
1
1
1
1
1
1
1
1
1
1
1
1
1
1
1
1
1
1
1
1
1
1
1
1
1
1
1
1
1
1
1
1
1
1
1
1
1
1
1
1
1
1
1
1
1
1
1
1
1
1
1
1
1
1
1
1
1
1
1
1
1
1
1
1
1
1
1
1
1
1
1
1
1
1
1
1
1
1
1
1
1
1
1
1
1
1
1
1
1
1
1
1
1
1
1
1
1
1
1
1
1
1
1
1
1
1
1
1
1
1
1
1
1
1
1
1
1
1
1
1
1
1
1
1
1
1
1
1
1
1
1
1
1
1
1
1
1
1
1
1
1
1
1
1
1
1
1
1
1
1
1
1
1
1
1
1
1
1
1
1
1
1
1
1
1
1
1
1
1
1
1
1
1
1
1
1
1
1
1
1
1
1
1
1
1
1
1
1
1
1
1
1
1
1
1
1
1
1
1
1
1
1
1
1
1
1
1
1
1
1
1
1
1
1
1
1
1
1
1
1
1
1
1
1
1
1
1
1
1
1
1
1
1
1
1
1
1
1
1
1
1
1
1
1
1
1
1
1
1
1
1
1
1
1
1
1
1
1
1
1
1
1
1
1
1
1
1
1
1
1
1
1
1
1
1
1
1
1
1
1
1
1
1
1
1
1
1
1
1
1
1
1
1
1
1
1
1
1
1
1
1
1
1
1
1
1
1
1
1
1
1
1
1
1
1
1
1
1
1
1
1
1
1
1
1
1
1
1
1
1
1
1
1
1
1
1
1
1
1
1
1
1
1
1
1
1
1
1
1
1
1
1
1
1
1
1
1
1
1
1
1
1
1
1
1
1
1
1
1
1
1
1
1
1
1
1
1
1
1
1
1
1
1
1
1
1
1
1
1
1
1
1
1
1
1
1
1
1
1
1
1
1
1
1
1
1
1
1
1
1
1
1
1
1
1
1
1
1
1
1
1
1
1
1
1
1
1
1
1
1
1
1
1
1
1
1
1
1
1
1
1
1
1
1
1
1
1
1
1
1
1
1
1
1
1
1
1
1
1
1
1
1
1
1
1
1
1
1
1
1
1
1
1
1
1
1
1
1
1
1
1
1
1
1
1
1
1
1
1
1
1
1
1
1
1
1
1
1
1
1
1
1
1
1
1
1
1
1
1
1
1
1
1
1
1
1
1
1
1
1
1
1
1
1
1
1
1
1
1
1
1
1
1
1
1
1
1
1
1
1
1
1
1
1
1
1
1
1
1
1
1
1
1
1
1
1
1
1
1
1
1
1
1
1
1
1
1
1
1
1
1
1
1
1
1
1
1
1
1
1
1
1
1
1
1
1
1
1
1
1
1
1
1
1
1
1
1
1
1
1
1
1
1
1
1
1
1
1
1
1
1
1
1
1
1
1
1
1
1
1
1
1
1
1
1
1
1
1
1
1
1
1
1
1
1
1
1
1
1
1
1
1
1
1
1
1
1
1
1
1
1
1
1
1
1
1
1
1
1
1
1
1
1
1
1
1
1
1
1
1
1
1
1
1
1
1
1
1
1
1
1
1
1
1
1
1
1
1
1
1
1
1
1
1
1
1
1
1
1
1
1
1
1
1
1
1
1
1
1
1
1
1
1
1
1
1
1
1
1
1
1
1
1
1
1
1
1
1
1
1
1
1
1
1
1
1
1
1
1
1
1
1
1
1
1
1
1
1
1
1
1
1
1
1
1
1
1
1
1
1
1
1
1
1
1
1
1
1
1
1
1
1
1
1
1
1
1
1
1
1
1
1
1
1
1
1
1
1
1
1
1
1
1
1
1
1
1
1
1
1
1
1
1
1
1
1
1
1
1
1
1
1
1
1
1
1
1
1
1
1
1
1
1
1
1
1
1
1
1
1
1
1
1
1
1
1
1
1
1
1
1
1
1
1
1
1
1
1
1
1
1
1
1
1
1
1
1
1
1
1
1
1
1
1
1
1
1
1
1
1
1
1
1
1
1
1
1
1
1
1
1
1
1
1
1
1
1
1
1
1
1
1
1
1
1
1
1
1
1
1
1
1
1
1
1
1
1
1
1
1
1
1
1
1
1
1
1
1
1
1
1
1
1
1
1
1
1
1
1
1
1
1
1
1
1
1
1
1
1
1
1
1
1
1
1
1
1
1
1
1
1
1
1
1
1
1
1
1
1
1
1
1
1
1
1
1
1
1
1
1
1
1
1
1
1
1
1
1
1
1
1
1
1
1
1
1
1
1
1
1
1
1
1
1
1
1
1
1
1
1
1
1
1
1
1
1
1
1
1
1
1
1
1
1
1
1
1
1
1
1
1
1
1
1
1
1
1
1
1
1
1
1
1
1
1
1
1
1
1
1
1
1
1
1
1
1
1
1
1
1
1
1
1
1
1
1
1
1
1
1
1
1
1
1
1
1
1
1
1
1
1
1
1
1
1
1
1
1
1
1
1
1
1
1
1
1
1
1
1
1
1
1
1
1
1
1
1
1
1
1
1
1
1
1
1
1
1
1
1
1
1
1
1
1
1
1
1
1
1
1
1
1
1
1
1
1
1
1
1
1
1
1
1
1
1
1
1
1
1
1
1
1
1
1
1
1
1
1
1
1
1
1
1
1
1
1
1
1
1
1
1
1
1
1
1
1
1
1
1
1
1
1
1
1
1
1
1
1
1
1
1
1
1
1
1
1
1
1
1
1
1
1
1
1
1
1
1
1
1
1
1
1
1
1
1
1
1
1
1
1
1
1
1
1
1
1
1
1
1
1
1
1
1
1
1
1
1
1
1
1
1
1
1
1
1
1
1
1
1
1
1
1
1
1
1
1
1
1
1
1
1
1
1
1
1
1
1
1
1
1
1
1
1
1
1
1
1
1
1
1
1
1
1
1
1
1
1
1
1
1
1
1
1
1
1
1
1
1
1
1
1
1
1
1
1
1
1
1
1
1
1
1
1
1
1
1
1
1
1
1
1
1
1
1
1
1
1
1
1
1
1
1
1
1
1
1
1
1
1
1
1
1
1
1
1
1
1
1
1
1
1
1
1
1
1
1
1
1
1
1
1
1
1
1
1
1
1
1
1
1
1
1
1
1
1
1
1
1
1
1
1
1
1
1
1
1
1
1
1
1
1
1
1
1
1
1
1
1
1
1
1
1
1
1
1
1
1
1
1
1
1
1
1
1
1
1
1
1
1
1
1
1
1
1
1
1
1
1
1
1
1
1
1
1
1
1
1
1
1
1
1
1
1
1
1
1
1
1
1
1
1
1
1
1
1
1
1
1
1
1
1
1
1
1
1
1
1
VECTORS force double
-0.648973 0 -0.648973
-1.14582 0 0.730571
-0.262831 0 0.46341
1.88456 0 0.480359
1.2615 0 0.342969
0.248181 0 0.222859
-0.121643 0 0.259066
-0.0465556 0 0.259234
-0.00508237 0 0.260017
-0.000243386 0 0.260133
-3.19748e-06 0 0.26014
2.49505e-07 0 0.260142
1.37233e-08 0 0.260142
-1.86224e-11 0 0.260142
3.96305e-12 0 0.260142
-7.92821e-12 0 0.260142
7.92832e-12 0 0.260142
-3.96649e-12 0 0.260142
1.86517e-14 0 0.260142
5.55112e-16 0 0.260142
4.44089e-16 0 0.260142
5.55112e-16 0 0.260142
4.44089e-16 0 0.260142
4.44089e-16 0 0.260142
-1.80411e-14 0 0.260142
3.96705e-12 0 0.260142
-7.92866e-12 0 0.260142
7.94653e-12 0 0.260142
-7.94687e-12 0 0.260142
7.92832e-12 0 0.260142
-3.96649e-12 0 0.260142
1.86517e-14 0 0.260142
5.55112e-16 0 0.260142
-1.77636e-14 0 0.260142
3.96705e-12 0 0.260142
-7.92821e-12 0 0.260142
7.94653e-12 0 0.260142
-7.94687e-12 0 0.260142
7.92832e-12 0 0.260142
-3.96649e-12 0 0.260142
1.86517e-14 0 0.260142
5.55112e-16 0 0.260142
-1.77636e-14 0 0.260142
3.96705e-12 0 0.260142
-7.92821e-12 0 0.260142
7.95053e-12 0 0.260142
1.31413e-11 0 0.260142
-1.35176e-08 0 0.260142
-2.49694e-07 0 0.260142
3.19734e-06 0 0.26014
0.000243385 0 0.260133
0.00508237 0 0.260017
0.0465556 0 0.259234
0.121643 0 0.259066
-0.248181 0 0.222859
-1.2615 0 0.342969
-1.88456 0 0.480359
0.262831 0 0.46341
1.14582 0 0.730571
0.648973 0 -0.648973
0.730571 0 -1.14582
0.419893 0 0.419893
-0.559318 0 -0.139685
5.74304 0 -0.15677
3.33907 0 -0.347883
0.342562 0 -0.477608
-0.136104 0 -0.488493
-0.0490317 0 -0.491385
-0.00486482 0 -0.494114
-0.000333131 0 -0.494379
-4.31983e-05 0 -0.494413
-3.10832e-06 0 -0.494416
-9.23519e-08 0 -0.494416
-9.08124e-10 0 -0.494416
7.49361e-12 0 -0.494416
-7.71672e-12 0 -0.494416
7.71349e-12 0 -0.494416
-3.86391e-12 0 -0.494416
2.47594e-14 0 -0.494416
-3.33067e-16 0 -0.494416
-1.09552e-16 0 -0.494416
-3.33067e-16 0 -0.494416
-1.09552e-16 0 -0.494416
-1.09552e-16 0 -0.494416
-2.42584e-14 0 -0.494416
3.86274e-12 0 -0.494416
-7.71372e-12 0 -0.494416
7.73786e-12 0 -0.494416
-7.73859e-12 0 -0.494416
7.71349e-12 0 -0.494416
-3.86391e-12 0 -0.494416
2.47594e-14 0 -0.494416
-3.33067e-16 0 -0.494416
-2.44789e-14 0 -0.494416
3.86274e-12 0 -0.494416
-7.71316e-12 0 -0.494416
7.73786e-12 0 -0.494416
-7.73859e-12 0 -0.494416
7.71349e-12 0 -0.494416
-3.86391e-12 0 -0.494416
2.47594e-14 0 -0.494416
-3.33067e-16 0 -0.494416
-2.44789e-14 0 -0.494416
3.86274e-12 0 -0.494416
-7.70972e-12 0 -0.494416
4.52126e-12 0 -0.494416
7.62081e-10 0 -0.494416
9.2731e-08 0 -0.494416
3.10802e-06 0 -0.494416
4.3198e-05 0 -0.494413
0.000333132 0 -0.494379
0.00486482 0 -0.494114
0.0490317 0 -0.491385
0.136104 0 -0.488493
-0.342562 0 -0.477608
-3.33907 0 -0.347883
-5.74304 0 -0.15677
0.559318 0 -0.139685
-0.419893 0 0.419893
-0.730571 0 -1.14582
0.46341 0 -0.262831
-0.139685 0 -0.559318
-0.907007 0 -0.907007
5.46552 0 -0.991233
2.97368 0 -0.985296
0.402465 0 -0.966662
-0.0244423 0 -0.919559
0.168933 0 -0.829581
0.00534568 0 -0.913195
0.000851864 0 -0.913175
6.38301e-05 0 -0.913129
2.48795e-06 0 -0.913099
9.89991e-08 0 -0.913098
1.77103e-09 0 -0.913098
4.87596e-13 0 -0.913098
-7.70026e-12 0 -0.913098
7.70005e-12 0 -0.913098
-3.86011e-12 0 -0.913098
3.05589e-14 0 -0.913098
-9.71445e-16 0 -0.913098
3.60822e-16 0 -0.913098
-9.71445e-16 0 -0.913098
3.60822e-16 0 -0.913098
-5.27356e-16 0 -0.913098
-3.01148e-14 0 -0.913098
3.85912e-12 0 -0.913098
-7.70115e-12 0 -0.913098
7.73158e-12 0 -0.913098
-7.73134e-12 0 -0.913098
7.70094e-12 0 -0.913098
-3.86011e-12 0 -0.913098
3.05589e-14 0 -0.913098
-9.71445e-16 0 -0.913098
-3.02813e-14 0 -0.913098
3.85912e-12 0 -0.913098
-7.70026e-12 0 -0.913098
7.73069e-12 0 -0.913098
-7.73134e-12 0 -0.913098
7.70094e-12 0 -0.913098
-3.86011e-12 0 -0.913098
3.05589e-14 0 -0.913098
-9.71445e-16 0 -0.913098
-3.02813e-14 0 -0.913098
3.85912e-12 0 -0.913098
-7.70026e-12 0 -0.913098
9.99599e-12 0 -0.913098
-1.66808e-09 0 -0.913098
-9.89295e-08 0 -0.913098
-2.48809e-06 0 -0.913099
-6.38303e-05 0 -0.913129
-0.000851863 0 -0.913175
-0.00534568 0 -0.913195
-0.168933 0 -0.829581
0.0244423 0 -0.919559
-0.402465 0 -0.966662
-2.97368 0 -0.985296
-5.46552 0 -0.991233
0.907007 0 -0.907007
0.139685 0 -0.559318
-0.46341 0 -0.262831
0.480359 0 1.88456
-0.15677 0 5.74304
-0.991233 0 5.46552
5.50875 0 5.50875
2.6875 0 5.4644
0.145354 0 5.46479
-0.0039987 0 5.36677
-0.00110933 0 5.35617
0.00109567 0 5.35472
-0.000143812 0 5.35455
-5.38352e-05 0 5.35447
-4.02383e-05 0 5.35442
-3.34083e-07 0 5.35442
2.50408e-09 0 5.35442
1.39577e-12 0 5.35442
-7.71402e-12 0 5.35442
7.71783e-12 0 5.35442
-3.86599e-12 0 5.35442
2.35367e-14 0 5.35442
2.498e-16 0 5.35442
4.44089e-16 0 5.35442
2.498e-16 0 5.35442
4.44089e-16 0 5.35442
4.44089e-16 0 5.35442
-2.43694e-14 0 5.35442
3.86668e-12 0 5.35442
-7.71802e-12 0 5.35442
7.7427e-12 0 5.35442
-7.742e-12 0 5.35442
7.71783e-12 0 5.35442
-3.86599e-12 0 5.35442
2.35367e-14 0 5.35442
2.498e-16 0 5.35442
-2.44249e-14 0 5.35442
3.86668e-12 0 5.35442
-7.71758e-12 0 5.35442
7.7427e-12 0 5.35442
-7.742e-12 0 5.35442
7.71783e-12 0 5.35442
-3.86599e-12 0 5.35442
2.35367e-14 0 5.35442
2.498e-16 0 5.35442
-2.44249e-14 0 5.35442
3.86668e-12 0 5.35442
-7.72116e-12 0 5.35442
7.75158e-12 0 5.35442
-1.99862e-09 0 5.35442
3.32915e-07 0 5.35442
4.02391e-05 0 5.35442
5.38347e-05 0 5.35447
0.000143813 0 5.35455
-0.00109567 0 5.35472
0.00110933 0 5.35617
0.0039987 0 5.36677
-0.145354 0 5.46479
-2.6875 0 5.4644
-5.50875 0 5.50875
0.991233 0 5.46552
0.15677 0 5.74304
-0.480359 0 1.88456
0.342969 0 1.2615
-0.347883 0 3.33907
-0.985296 0 2.97368
5.4644 0 2.6875
2.47373 0 2.47373
-0.0654103 0 2.47668
0.0298411 0 2.49046
0.00489512 0 2.48872
0.000391159 0 2.4876
3.76018e-05 0 2.48778
6.73255e-06 0 2.48782
1.73701e-06 0 2.48784
3.40035e-08 0 2.48784
-9.83623e-11 0 2.48784
3.8805e-12 0 2.48784
-7.74414e-12 0 2.48784
7.74369e-12 0 2.48784
-3.87657e-12 0 2.48784
1.80981e-14 0 2.48784
-5.55112e-16 0 2.48784
3.34537e-16 0 2.48784
-5.55112e-16 0 2.48784
3.34537e-16 0 2.48784
-5.53641e-16 0 2.48784
-1.80411e-14 0 2.48784
3.87606e-12 0 2.48784
-7.74331e-12 0 2.48784
7.76273e-12 0 2.48784
-7.76196e-12 0 2.48784
7.74457e-12 0 2.48784
-3.87657e-12 0 2.48784
1.80981e-14 0 2.48784
-5.55112e-16 0 2.48784
-1.78176e-14 0 2.48784
3.87606e-12 0 2.48784
-7.74414e-12 0 2.48784
7.76184e-12 0 2.48784
-7.76196e-12 0 2.48784
7.74457e-12 0 2.48784
-3.87657e-12 0 2.48784
1.80981e-14 0 2.48784
-5.55112e-16 0 2.48784
-1.78176e-14 0 2.48784
3.87606e-12 0 2.48784
-7.74414e-12 0 2.48784
7.75829e-12 0 2.48784
7.78125e-11 0 2.48784
-3.39711e-08 0 2.48784
-1.73697e-06 0 2.48784
-6.7329e-06 0 2.48782
-3.76014e-05 0 2.48778
-0.000391159 0 2.4876
-0.00489512 0 2.48872
-0.0298411 0 2.49046
0.0654103 0 2.47668
-2.47373 0 2.47373
-5.4644 0 2.6875
0.985296 0 2.97368
0.347883 0 3.33907
-0.342969 0 1.2615
0.222859 0 0.248181
-0.477608 0 0.342562
-0.966662 0 0.402465
5.46479 0 0.145354
2.47668 0 -0.0654103
-0.0684266 0 -0.0684266
0.0352211 0 -0.0658772
0.00468524 0 -0.0664299
0.000405944 0 -0.0664509
2.41457e-05 0 -0.0664412
1.02348e-06 0 -0.0664414
5.43903e-08 0 -0.0664414
-9.36504e-10 0 -0.0664415
-3.43592e-12 0 -0.0664415
3.8809e-12 0 -0.0664415
-7.75324e-12 0 -0.0664415
7.75335e-12 0 -0.0664415
-3.88034e-12 0 -0.0664415
1.82077e-14 0 -0.0664415
1.11022e-16 0 -0.0664415
4.44089e-16 0 -0.0664415
1.11022e-16 0 -0.0664415
4.44089e-16 0 -0.0664415
4.44089e-16 0 -0.0664415
-1.80411e-14 0 -0.0664415
3.8809e-12 0 -0.0664415
-7.75324e-12 0 -0.0664415
7.77201e-12 0 -0.0664415
-7.77189e-12 0 -0.0664415
7.75335e-12 0 -0.0664415
-3.88034e-12 0 -0.0664415
1.82077e-14 0 -0.0664415
1.11022e-16 0 -0.0664415
-1.82077e-14 0 -0.0664415
3.8809e-12 0 -0.0664415
-7.75324e-12 0 -0.0664415
7.77201e-12 0 -0.0664415
-7.77189e-12 0 -0.0664415
7.75335e-12 0 -0.0664415
-3.88034e-12 0 -0.0664415
1.82077e-14 0 -0.0664415
1.11022e-16 0 -0.0664415
-1.82077e-14 0 -0.0664415
3.8809e-12 0 -0.0664415
-7.75324e-12 0 -0.0664415
7.77201e-12 0 -0.0664415
-5.93608e-12 0 -0.0664415
1.24248e-09 0 -0.0664415
-5.48191e-08 0 -0.0664414
-1.02364e-06 0 -0.0664414
-2.41452e-05 0 -0.0664412
-0.000405944 0 -0.0664509
-0.00468524 0 -0.0664299
-0.0352211 0 -0.0658772
0.0684266 0 -0.0684266
-2.47668 0 -0.0654103
-5.46479 0 0.145354
0.966662 0 0.402465
0.477608 0 0.342562
-0.222859 0 0.248181
0.259066 0 -0.121643
-0.488493 0 -0.136104
-0.919559 0 -0.0244423
5.36677 0 -0.0039987
2.49046 0 0.0298411
-0.0658772 0 0.0352211
0.0351707 0 0.0351707
0.00467205 0 0.0351165
0.000410028 0 0.0351193
2.39403e-05 0 0.0351194
9.53797e-07 0 0.0351194
2.58346e-08 0 0.0351194
2.21089e-10 0 0.0351194
-1.62897e-12 0 0.0351194
3.88094e-12 0 0.0351194
-7.7548e-12 0 0.0351194
7.75479e-12 0 0.0351194
-3.88101e-12 0 0.0351194
1.89863e-14 0 0.0351194
3.33067e-16 0 0.0351194
3.34537e-16 0 0.0351194
3.33067e-16 0 0.0351194
3.34537e-16 0 0.0351194
3.34537e-16 0 0.0351194
-1.80411e-14 0 0.0351194
3.88094e-12 0 0.0351194
-7.75485e-12 0 0.0351194
7.77294e-12 0 0.0351194
-7.7735e-12 0 0.0351194
7.75479e-12 0 0.0351194
-3.88101e-12 0 0.0351194
1.89863e-14 0 0.0351194
3.33067e-16 0 0.0351194
-1.78176e-14 0 0.0351194
3.88094e-12 0 0.0351194
-7.7548e-12 0 0.0351194
7.77294e-12 0 0.0351194
-7.7735e-12 0 0.0351194
7.75479e-12 0 0.0351194
-3.88101e-12 0 0.0351194
1.89863e-14 0 0.0351194
3.33067e-16 0 0.0351194
-1.78176e-14 0 0.0351194
3.88094e-12 0 0.0351194
-7.7548e-12 0 0.0351194
7.77294e-12 0 0.0351194
-7.9054e-12 0 0.0351194
1.63283e-10 0 0.0351194
-2.64226e-08 0 0.0351194
-9.539e-07 0 0.0351194
-2.39399e-05 0 0.0351194
-0.000410028 0 0.0351193
-0.00467205 0 0.0351165
-0.0351707 0 0.0351707
0.0658772 0 0.0352211
-2.49046 0 0.0298411
-5.36677 0 -0.0039987
0.919559 0 -0.0244423
0.488493 0 -0.136104
-0.259066 0 -0.121643
0.259234 0 -0.0465556
-0.491385 0 -0.0490316
-0.829581 0 0.168933
5.35617 0 -0.00110899
2.48872 0 0.00489509
-0.0664299 0 0.00468524
0.0351165 0 0.00467205
0.00467404 0 0.00467404
0.000410012 0 0.00467415
2.39265e-05 0 0.00467415
9.53779e-07 0 0.00467415
2.58429e-08 0 0.00467415
2.27163e-10 0 0.00467415
-1.7617e-12 0 0.00467415
3.87868e-12 0 0.00467415
-7.75369e-12 0 0.00467415
7.7538e-12 0 0.00467415
-3.87856e-12 0 0.00467415
1.82077e-14 0 0.00467415
-7.77156e-16 0 0.00467415
-4.44089e-16 0 0.00467415
-7.77156e-16 0 0.00467415
-4.44089e-16 0 0.00467415
-4.44089e-16 0 0.00467415
-1.80411e-14 0 0.00467415
3.87868e-12 0 0.00467415
-7.75369e-12 0 0.00467415
7.77245e-12 0 0.00467415
-7.77145e-12 0 0.00467415
7.7538e-12 0 0.00467415
-3.87856e-12 0 0.00467415
1.82077e-14 0 0.00467415
-7.77156e-16 0 0.00467415
-1.90958e-14 0 0.00467415
3.87868e-12 0 0.00467415
-7.75369e-12 0 0.00467415
7.77245e-12 0 0.00467415
-7.77145e-12 0 0.00467415
7.7538e-12 0 0.00467415
-3.87856e-12 0 0.00467415
1.82077e-14 0 0.00467415
-7.77156e-16 0 0.00467415
-1.90958e-14 0 0.00467415
3.87868e-12 0 0.00467415
-7.75369e-12 0 0.00467415
7.77245e-12 0 0.00467415
-7.77145e-12 0 0.00467415
1.55216e-10 0 0.00467415
-2.64305e-08 0 0.00467415
-9.5396e-07 0 0.00467415
-2.39259e-05 0 0.00467415
-0.000410012 0 0.00467415
-0.00467404 0 0.00467404
-0.0351165 0 0.00467205
0.0664299 0 0.00468524
-2.48872 0 0.00489509
-5.35617 0 -0.00110899
0.829581 0 0.168933
0.491385 0 -0.0490316
-0.259234 0 -0.0465556
0.260017 0 -0.00508262
-0.494114 0 -0.00486171
-0.913195 0 0.00534319
5.35472 0 0.00113591
2.4876 0 0.000389422
-0.0664508 0 0.00040589
0.0351193 0 0.000410003
0.00467415 0 0.000409986
0.000410011 0 0.000409986
2.39265e-05 0 0.000409986
9.53816e-07 0 0.000409986
2.58426e-08 0 0.000409986
2.27165e-10 0 0.000409986
-1.76087e-12 0 0.000409986
3.87961e-12 0 0.000409986
-7.75435e-12 0 0.000409986
7.75434e-12 0 0.000409986
-3.88056e-12 0 0.000409986
1.85422e-14 0 0.000409986
-1.11022e-16 0 0.000409986
-1.09552e-16 0 0.000409986
-1.11022e-16 0 0.000409986
-1.09552e-16 0 0.000409986
-1.09552e-16 0 0.000409986
-1.80411e-14 0 0.000409986
3.87961e-12 0 0.000409986
-7.75485e-12 0 0.000409986
7.7725e-12 0 0.000409986
-7.7735e-12 0 0.000409986
7.75434e-12 0 0.000409986
-3.88056e-12 0 0.000409986
1.85422e-14 0 0.000409986
-1.11022e-16 0 0.000409986
-1.82617e-14 0 0.000409986
3.87961e-12 0 0.000409986
-7.75435e-12 0 0.000409986
7.7725e-12 0 0.000409986
-7.7735e-12 0 0.000409986
7.75434e-12 0 0.000409986
-3.88056e-12 0 0.000409986
1.85422e-14 0 0.000409986
-1.11022e-16 0 0.000409986
-1.82617e-14 0 0.000409986
3.87961e-12 0 0.000409986
-7.75435e-12 0 0.000409986
7.7725e-12 0 0.000409986
-7.7735e-12 0 0.000409986
1.55217e-10 0 0.000409986
-2.64302e-08 0 0.000409986
-9.53988e-07 0 0.000409986
-2.3926e-05 0 0.000409986
-0.000410011 0 0.000409986
-0.00467416 0 0.000409986
-0.0351193 0 0.000410003
0.0664508 0 0.00040589
-2.4876 0 0.000389422
-5.35472 0 0.00113591
0.913195 0 0.00534319
0.494114 0 -0.00486171
-0.260017 0 -0.00508262
0.260132 0 -0.000240188
-0.494376 0 -0.000289933
-0.913205 0 0.000788034
5.35459 0 -8.9977e-05
2.48776 0 3.08691e-05
-0.0664412 0 2.31221e-05
0.0351194 0 2.29865e-05
0.00467415 0 2.29726e-05
0.000410011 0 2.29725e-05
2.39265e-05 0 2.29725e-05
9.53816e-07 0 2.29725e-05
2.58425e-08 0 2.29725e-05
2.27164e-10 0 2.29725e-05
-1.76126e-12 0 2.29725e-05
3.88178e-12 0 2.29725e-05
-7.75546e-12 0 2.29725e-05
7.75513e-12 0 2.29725e-05
-3.88167e-12 0 2.29725e-05
1.77636e-14 0 2.29725e-05
-3.33067e-16 0 2.29725e-05
0 0 2.29725e-05
-3.33067e-16 0 2.29725e-05
0 0 2.29725e-05
0 0 2.29725e-05
-1.80411e-14 0 2.29725e-05
3.88178e-12 0 2.29725e-05
-7.75591e-12 0 2.29725e-05
7.77378e-12 0 2.29725e-05
-7.77367e-12 0 2.29725e-05
7.75513e-12 0 2.29725e-05
-3.88167e-12 0 2.29725e-05
1.77636e-14 0 2.29725e-05
-3.33067e-16 0 2.29725e-05
-1.86517e-14 0 2.29725e-05
3.88178e-12 0 2.29725e-05
-7.75546e-12 0 2.29725e-05
7.77378e-12 0 2.29725e-05
-7.77367e-12 0 2.29725e-05
7.75513e-12 0 2.29725e-05
-3.88167e-12 0 2.29725e-05
1.77636e-14 0 2.29725e-05
-3.33067e-16 0 2.29725e-05
-1.86517e-14 0 2.29725e-05
3.88178e-12 0 2.29725e-05
-7.75546e-12 0 2.29725e-05
7.77378e-12 0 2.29725e-05
-7.77367e-12 0 2.29725e-05
1.55218e-10 0 2.29725e-05
-2.64301e-08 0 2.29725e-05
-9.53988e-07 0 2.29725e-05
-2.3926e-05 0 2.29725e-05
-0.000410011 0 2.29725e-05
-0.00467415 0 2.29726e-05
-0.0351194 0 2.29865e-05
0.0664412 0 2.31221e-05
-2.48776 0 3.08691e-05
-5.35459 0 -8.9977e-05
0.913205 0 0.000788034
0.494376 0 -0.000289933
-0.260132 0 -0.000240188
0.260132 0 0.000240188
-0.494376 0 0.000289933
-0.913205 0 -0.000788034
5.35459 0 8.9977e-05
2.48776 0 -3.08691e-05
-0.0664412 0 -2.31221e-05
0.0351194 0 -2.29865e-05
0.00467415 0 -2.29726e-05
0.000410011 0 -2.29725e-05
2.39265e-05 0 -2.29725e-05
9.53816e-07 0 -2.29725e-05
2.58425e-08 0 -2.29725e-05
2.27165e-10 0 -2.29725e-05
-1.75998e-12 0 -2.29725e-05
3.88139e-12 0 -2.29725e-05
-7.75524e-12 0 -2.29725e-05
7.75523e-12 0 -2.29725e-05
-3.88145e-12 0 -2.29725e-05
1.85422e-14 0 -2.29725e-05
-1.11022e-16 0 -2.29725e-05
7.78627e-16 0 -2.29725e-05
-1.11022e-16 0 -2.29725e-05
7.78627e-16 0 -2.29725e-05
-1.09552e-16 0 -2.29725e-05
-1.80411e-14 0 -2.29725e-05
3.88139e-12 0 -2.29725e-05
-7.75485e-12 0 -2.29725e-05
7.77338e-12 0 -2.29725e-05
-7.7735e-12 0 -2.29725e-05
7.75523e-12 0 -2.29725e-05
-3.88145e-12 0 -2.29725e-05
1.85422e-14 0 -2.29725e-05
-1.11022e-16 0 -2.29725e-05
-1.73735e-14 0 -2.29725e-05
3.88139e-12 0 -2.29725e-05
-7.75524e-12 0 -2.29725e-05
7.77338e-12 0 -2.29725e-05
-7.7735e-12 0 -2.29725e-05
7.75523e-12 0 -2.29725e-05
-3.88145e-12 0 -2.29725e-05
1.85422e-14 0 -2.29725e-05
-1.11022e-16 0 -2.29725e-05
-1.73735e-14 0 -2.29725e-05
3.88139e-12 0 -2.29725e-05
-7.75524e-12 0 -2.29725e-05
7.77338e-12 0 -2.29725e-05
-7.7735e-12 0 -2.29725e-05
1.55218e-10 0 -2.29725e-05
-2.64301e-08 0 -2.29725e-05
-9.53988e-07 0 -2.29725e-05
-2.3926e-05 0 -2.29725e-05
-0.000410011 0 -2.29725e-05
-0.00467415 0 -2.29726e-05
-0.0351194 0 -2.29865e-05
0.0664412 0 -2.31221e-05
-2.48776 0 -3.08691e-05
-5.35459 0 8.9977e-05
0.913205 0 -0.000788034
0.494376 0 0.000289933
-0.260132 0 0.000240188
0.260017 0 0.00508262
-0.494114 0 0.00486171
-0.913195 0 -0.00534319
5.35472 0 -0.00113591
2.4876 0 -0.000389422
-0.0664508 0 -0.00040589
0.0351193 0 -0.000410003
0.00467415 0 -0.000409986
0.000410011 0 -0.000409986
2.39265e-05 0 -0.000409986
9.53816e-07 0 -0.000409986
2.58426e-08 0 -0.000409986
2.27165e-10 0 -0.000409986
-1.76081e-12 0 -0.000409986
3.87956e-12 0 -0.000409986
-7.75413e-12 0 -0.000409986
7.75424e-12 0 -0.000409986
-3.87945e-12 0 -0.000409986
1.86517e-14 0 -0.000409986
1.11022e-16 0 -0.000409986
0 0 -0.000409986
1.11022e-16 0 -0.000409986
0 0 -0.000409986
0 0 -0.000409986
-1.80411e-14 0 -0.000409986
3.87956e-12 0 -0.000409986
-7.75413e-12 0 -0.000409986
7.77245e-12 0 -0.000409986
-7.77278e-12 0 -0.000409986
7.75424e-12 0 -0.000409986
-3.87945e-12 0 -0.000409986
1.86517e-14 0 -0.000409986
1.11022e-16 0 -0.000409986
-1.82077e-14 0 -0.000409986
3.87956e-12 0 -0.000409986
-7.75413e-12 0 -0.000409986
7.77245e-12 0 -0.000409986