# vtk DataFile Version 3.0
SiWiRVisFile
ASCII
DATASET UNSTRUCTURED_GRID
POINTS 1600 DOUBLE
78.4543 100 75.5914
79.5425 100 75.8136
80.6766 100 76.2013
82.4344 100 75.5892
83.5176 100 75.87
84.7236 100 76.0334
85.803 100 76.0497
86.9255 100 76.3838
87.9692 100 76.6674
89.1275 100 77.0646
90.137 100 77.1299
91.2535 100 77.4273
91.6556 100 76.2539
92.5004 100 75.4451
93.5471 100 74.5506
95.2992 100 73.955
96.3413 100 73.3173
97.6678 100 73.7169
97.515 100 72.6133
99.8376 100 73.4623
103.962 100 65.3903
103.112 100 68.0907
103.288 100 66.7174
104.472 100 66.6537
105.32 100 65.9272
106.394 100 65.5189
108.719 100 65.9671
109.544 100 65.3176
110.711 100 65.1803
111.551 100 64.4918
112.941 100 64.4918
113.781 100 65.1803
114.948 100 65.3176
115.773 100 65.9671
118.098 100 65.5189
119.172 100 65.9272
120.021 100 66.6537
121.204 100 66.7174
121.38 100 68.0907
120.531 100 65.3903
124.655 100 73.4623
126.977 100 72.6133
126.825 100 73.7169
128.151 100 73.3173
129.193 100 73.955
130.945 100 74.5506
131.992 100 75.4451
132.837 100 76.2539
133.239 100 77.4273
134.355 100 77.1299
135.365 100 77.0646
136.523 100 76.6674
137.567 100 76.3838
138.689 100 76.0497
139.769 100 76.0334
140.975 100 75.87
142.058 100 75.5892
143.816 100 76.2013
144.95 100 75.8136
146.038 100 75.5914
78.7892 100 76.6445
79.8402 100 76.9391
81.7163 100 76.5207
82.7244 100 76.8082
83.8157 100 77.0071
84.8988 100 77.1342
86.0934 100 77.2706
87.1673 100 77.473
88.2691 100 77.7315
89.4925 100 78.1071
90.4814 100 78.2523
91.5419 100 78.4547
92.2693 100 77.1192
93.137 100 76.4586
94.3317 100 76.2877
94.5248 100 75.0904
96.2788 100 74.35
98.6799 100 73.3057
99.8365 100 74.6861
101.077 100 73.1488
102.306 100 67.2824
101.299 100 71.3666
104.014 100 70.8523
107.761 100 68.0161
105.744 100 66.8947
106.898 100 66.6525
108.068 100 67.07
109.377 100 66.8681
110.345 100 66.2721
111.669 100 65.6548
112.823 100 65.6548
114.147 100 66.2721
115.115 100 66.8681
116.424 100 67.07
117.594 100 66.6525
118.749 100 66.8947
116.732 100 68.0161
120.478 100 70.8523
123.193 100 71.3666
122.186 100 67.2824
123.416 100 73.1488
124.656 100 74.6861
125.813 100 73.3057
128.214 100 74.35
129.968 100 75.0904
130.161 100 76.2877
131.355 100 76.4586
132.223 100 77.1192
132.951 100 78.4547
134.011 100 78.2523
135 100 78.1071
136.223 100 77.7315
137.325 100 77.473
138.399 100 77.2706
139.594 100 77.1342
140.677 100 77.0071
141.768 100 76.8082
142.776 100 76.5207
144.652 100 76.9391
145.703 100 76.6445
78.9909 100 77.7319
80.1091 100 78.0037
80.9195 100 77.2865
81.9952 100 77.5765
83.0898 100 77.9309
84.177 100 78.1321
85.2822 100 78.2184
86.4696 100 78.3248
87.5327 100 78.5394
88.677 100 78.7331
89.7237 100 79.2213
90.7573 100 79.3885
91.9474 100 79.5558
92.5146 100 78.1647
94.4168 100 77.3775
95.3562 100 76.7379
95.8411 100 75.568
97.0158 100 75.1432
97.9833 100 74.6522
100.872 100 74.2358
102.15 100 72.7449
103.045 100 71.5022
105.007 100 71.7546
105.986 100 71.5406
107.048 100 70.8208
108.091 100 72.1477
109.356 100 72.3667
108.673 100 71.0518
110.555 100 67.2861
111.626 100 66.8756
112.867 100 66.8756
113.937 100 67.2861
115.82 100 71.0517
115.137 100 72.3667
116.402 100 72.1477
117.444 100 70.8208
118.506 100 71.5406
119.485 100 71.7546
121.447 100 71.5022
122.342 100 72.7449
123.621 100 74.2358
126.509 100 74.6522
127.477 100 75.1432
128.651 100 75.568
129.136 100 76.7379
130.076 100 77.3775
131.978 100 78.1647
132.545 100 79.5558
133.735 100 79.3885
134.769 100 79.2213
135.815 100 78.7331
136.96 100 78.5394
138.023 100 78.3248
139.21 100 78.2184
140.315 100 78.1321
141.403 100 77.9309
142.497 100 77.5765
143.573 100 77.2865
144.383 100 78.0037
145.501 100 77.7319
79.3149 100 78.73
80.2614 100 79.1288
81.2345 100 78.4197
82.3392 100 78.7485
83.4121 100 79.0179
84.5091 100 79.1479
85.7323 100 79.1148
86.9019 100 79.3658
88.043 100 79.4977
89.035 100 80.0901
90.0901 100 80.1844
91.0668 100 80.3553
92.2077 100 80.6151
93.2812 100 79.1612
93.5985 100 78.0549
95.8124 100 77.9378
96.4179 100 77.0493
97.1471 100 76.1328
98.338 100 75.9941
99.4912 100 75.7158
100.608 100 75.4231
102.148 100 73.8794
103.517 100 73.1095
104.685 100 72.9544
105.984 100 72.7767
106.987 100 72.0612
108.724 100 73.2705
109.886 100 73.255
110.456 100 71.133
111.65 100 68.2411
112.843 100 68.2411
114.037 100 71.133
114.606 100 73.255
115.768 100 73.2705
117.505 100 72.0612
118.508 100 72.7767
119.807 100 72.9544
120.975 100 73.1095
122.344 100 73.8794
123.885 100 75.4231
125.001 100 75.7158
126.154 100 75.9941
127.345 100 76.1328
128.075 100 77.0493
128.68 100 77.9378
130.894 100 78.0549
131.211 100 79.1612
132.285 100 80.6151
133.426 100 80.3553
134.402 100 80.1844
135.457 100 80.0901
136.449 100 79.4977
137.59 100 79.3658
138.76 100 79.1148
139.983 100 79.1479
141.08 100 79.0179
142.153 100 78.7485
143.258 100 78.4197
144.231 100 79.1288
145.178 100 78.73
79.2557 100 79.785
80.2495 100 80.2223
81.2358 100 79.5837
82.6478 100 79.8621
83.6827 100 80.1242
85.2011 100 80.0785
86.2817 100 80.308
87.3826 100 80.3959
88.3213 100 81.0166
89.4026 100 81.1522
90.451 100 81.2167
91.5318 100 81.4764
93.3671 100 80.6762
94.1387 100 79.8763
94.5117 100 78.6224
96.3798 100 78.8496
96.9905 100 78.0933
97.7144 100 77.0763
99.0601 100 77.0189
100.102 100 76.7193
101.741 100 75.1788
102.808 100 74.8849
104.499 100 74.6477
105.859 100 73.9677
106.881 100 73.6468
107.883 100 73.9995
109.241 100 74.262
110.407 100 74.3435
110.648 100 72.4505
111.372 100 71.6711
113.12 100 71.6711
113.845 100 72.4505
114.085 100 74.3435
115.251 100 74.262
116.61 100 73.9995
117.612 100 73.6468
118.634 100 73.9677
119.993 100 74.6477
121.684 100 74.8849
122.752 100 75.1788
124.391 100 76.7193
125.432 100 77.0189
126.778 100 77.0763
127.502 100 78.0933
128.113 100 78.8496
129.981 100 78.6224
130.354 100 79.8763
131.125 100 80.6762
132.961 100 81.4764
134.041 100 81.2167
135.09 100 81.1522
136.171 100 81.0166
137.11 100 80.3959
138.211 100 80.308
139.291 100 80.0785
140.81 100 80.1242
141.845 100 79.8621
143.257 100 79.5837
144.243 100 80.2223
145.237 100 79.785
79.2973 100 80.9184
80.3627 100 81.3004
81.2736 100 80.6144
82.4403 100 80.9915
83.5253 100 81.2162
84.5616 100 80.9449
85.6473 100 81.137
86.6838 100 81.3836
87.6533 100 81.9108
88.7433 100 82.0241
89.9795 100 82.1374
91.0805 100 82.4036
92.2738 100 82.2627
93.3514 100 81.7924
94.5286 100 80.9388
95.3784 100 79.6037
96.9661 100 80.0943
97.4228 100 79.0496
98.2112 100 78.051
99.8609 100 77.8059
101.165 100 76.3597
102.609 100 76.0578
103.676 100 75.7076
104.944 100 75.6367
105.973 100 75.1179
107.171 100 74.8716
108.445 100 74.9651
109.689 100 75.1549
111.547 100 74.4511
111.065 100 73.4595
113.428 100 73.4595
112.946 100 74.4511
114.803 100 75.1549
116.047 100 74.9651
117.321 100 74.8716
118.519 100 75.1179
119.548 100 75.6367
120.816 100 75.7076
121.883 100 76.0578
123.327 100 76.3597
124.631 100 77.8059
126.281 100 78.051
127.07 100 79.0496
127.526 100 80.0943
129.114 100 79.6037
129.964 100 80.9388
131.141 100 81.7924
132.219 100 82.2627
133.412 100 82.4036
134.513 100 82.1374
135.749 100 82.0241
136.839 100 81.9108
137.809 100 81.3836
138.845 100 81.137
139.931 100 80.9449
140.967 100 81.2162
142.052 100 80.9915
143.219 100 80.6144
144.13 100 81.3004
145.195 100 80.9184
79.4018 100 82.1042
80.5189 100 82.4406
81.31 100 81.715
82.3944 100 82.1077
83.9208 100 82.123
84.9707 100 82.0021
86.066 100 82.2386
86.9466 100 82.9869
87.9909 100 82.9048
89.1169 100 83.0858
90.2956 100 83.2973
92.0361 100 83.3307
93.1883 100 82.8922
94.3864 100 82.5405
95.2423 100 81.8591
95.8331 100 80.6682
97.8958 100 80.9219
98.3371 100 79.7843
99.2146 100 78.845
101.065 100 77.521
102.001 100 76.9922
103.531 100 76.8676
104.674 100 76.837
105.86 100 76.3087
107.013 100 76.0401
108.36 100 76.179
109.492 100 76.3268
110.512 100 75.7659
110.634 100 76.7933
111.71 100 76.2473
112.782 100 76.2473
113.858 100 76.7933
113.98 100 75.7659
115 100 76.3268
116.132 100 76.179
117.479 100 76.0401
118.632 100 76.3087
119.819 100 76.837
120.962 100 76.8676
122.491 100 76.9922
123.428 100 77.521
125.278 100 78.845
126.155 100 79.7843
126.597 100 80.9219
128.659 100 80.6682
129.25 100 81.8591
130.106 100 82.5405
131.304 100 82.8922
132.456 100 83.3307
134.197 100 83.2973
135.376 100 83.0858
136.501 100 82.9048
137.546 100 82.9869
138.426 100 82.2386
139.522 100 82.0021
140.572 100 82.123
142.098 100 82.1077
143.182 100 81.715
143.974 100 82.4406
145.091 100 82.1042
79.6806 100 83.1556
80.5468 100 83.8265
81.6537 100 83.0035
82.5433 100 83.7323
83.1658 100 82.8691
84.2699 100 83.1475
85.3664 100 83.0964
86.2637 100 83.738
87.3461 100 83.9929
88.3898 100 84.0794
89.4156 100 84.3345
90.4333 100 84.4039
91.4377 100 84.3382
92.8334 100 84.0609
93.8899 100 83.7704
94.9007 100 83.718
96.8822 100 81.1495
98.9313 100 80.7193
99.6893 100 79.8942
100.433 100 78.8423
101.856 100 78.7381
102.641 100 77.8838
103.923 100 77.9349
105.432 100 77.7121
106.434 100 77.1171
107.724 100 77.0998
108.405 100 78.0711
109.54 100 77.3928
110.603 100 77.8648
111.617 100 77.6589
112.876 100 77.6589
113.889 100 77.8648
114.952 100 77.3928
116.088 100 78.0712
116.768 100 77.0998
118.058 100 77.1171
119.061 100 77.7121
120.569 100 77.9349
121.852 100 77.8838
122.636 100 78.7381
124.059 100 78.8423
124.803 100 79.8942
125.561 100 80.7193
127.61 100 81.1495
129.592 100 83.718
130.602 100 83.7704
131.659 100 84.0609
133.055 100 84.3382
134.059 100 84.4039
135.077 100 84.3345
136.103 100 84.0794
137.146 100 83.9929
138.229 100 83.738
139.126 100 83.0964
140.222 100 83.1475
141.327 100 82.8691
141.949 100 83.7323
142.839 100 83.0035
143.946 100 83.8265
144.812 100 83.1556
79.6023 100 84.6445
80.6148 100 84.9491
81.5599 100 84.2383
82.6441 100 84.8578
83.5959 100 84.0685
84.6773 100 84.2251
85.6329 100 84.6897
86.6394 100 85.0032
87.7262 100 85.0111
88.7552 100 85.356
89.8112 100 85.3459
90.985 100 85.3626
92.299 100 84.956
93.3948 100 85.0368
94.5781 100 84.8151
96.0242 100 83.2642
96.3842 100 82.2593
97.4814 100 82.1123
100.243 100 81.2256
100.791 100 79.9404
[...]
POINT_DATA 1600
SCALARS mass double
LOOKUP_TABLE default
1
1
1
1
1
1
1
1
1
1
1
1
1
1
1
1
1
1
1
1
1
1
1
1
1
1
1
1
1
1
1
1
1
1
1
1
1
1
1
1
1
1
1
1
1
1
1
1
1
1
1
1
1
1
1
1
1
1
1
1
1
1
1
1
1
1
1
1
1
1
1
1
1
1
1
1
1
1
1
1
1
1
1
1
1
1
1
1
1
1
1
1
1
1
1
1
1
1
1
1
1
1
1
1
1
1
1
1
1
1
1
1
1
1
1
1
1
1
1
1
1
1
1
1
1
1
1
1
1
1
1
1
1
1
1
1
1
1
1
1
1
1
1
1
1
1
1
1
1
1
1
1
1
1
1
1
1
1
1
1
1
1
1
1
1
1
1
1
1
1
1
1
1
1
1
1
1
1
1
1
1
1
1
1
1
1
1
1
1
1
1
1
1
1
1
1
1
1
1
1
1
1
1
1
1
1
1
1
1
1
1
1
1
1
1
1
1
1
1
1
1
1
1
1
1
1
1
1
1
1
1
1
1
1
1
1
1
1
1
1
1
1
1
1
1
1
1
1
1
1
1
1
1
1
1
1
1
1
1
1
1
1
1
1
1
1
1
1
1
1
1
1
1
1
1
1
1
1
1
1
1
1
1
1
1
1
1
1
1
1
1
1
1
1
1
1
1
1
1
1
1
1
1
1
1
1
1
1
1
1
1
1
1
1
1
1
1
1
1
1
1
1
1
1
1
1
1
1
1
1
1
1
1
1
1
1
1
1
1
1
1
1
1
1
1
1
1
1
1
1
1
1
1
1
1
1
1
1
1
1
1
1
1
1
1
1
1
1
1
1
1
1
1
1
1
1
1
1
1
1
1
1
1
1
1
1
1
1
1
1
1
1
1
1
1
1
1
1
1
1
1
1
1
1
1
1
1
1
1
1
1
1
1
1
1
1
1
1
1
1
1
1
1
1
1
1
1
1
1
1
1
1
1
1
1
1
1
1
1
1
1
1
1
1
1
1
1
1
1
1
1
1
1
1
1
1
1
1
1
1
1
1
1
1
1
1
1
1
1
1
1
1
1
1
1
1
1
1
1
1
1
1
1
1
1
1
1
1
1
1
1
1
1
1
1
1
1
1
1
1
1
1
1
1
1
1
1
1
1
1
1
1
1
1
1
1
1
1
1
1
1
1
1
1
1
1
1
1
1
1
1
1
1
1
1
1
1
1
1
1
1
1
1
1
1
1
1
1
1
1
1
1
1
1
1
1
1
1
1
1
1
1
1
1
1
1
1
1
1
1
1
1
1
1
1
1
1
1
1
1
1
1
1
1
1
1
1
1
1
1
1
1
1
1
1
1
1
1
1
1
1
1
1
1
1
1
1
1
1
1
1
1
1
1
1
1
1
1
1
1
1
1
1
1
1
1
1
1
1
1
1
1
1
1
1
1
1
1
1
1
1
1
1
1
1
1
1
1
1
1
1
1
1
1
1
1
1
1
1
1
1
1
1
1
1
1
1
1
1
1
1
1
1
1
1
1
1
1
1
1
1
1
1
1
1
1
1
1
1
1
1
1
1
1
1
1
1
1
1
1
1
1
1
1
1
1
1
1
1
1
1
1
1
1
1
1
1
1
1
1
1
1
1
1
1
1
1
1
1
1
1
1
1
1
1
1
1
1
1
1
1
1
1
1
1
1
1
1
1
1
1
1
1
1
1
1
1
1
1
1
1
1
1
1
1
1
1
1
1
1
1
1
1
1
1
1
1
1
1
1
1
1
1
1
1
1
1
1
1
1
1
1
1
1
1
1
1
1
1
1
1
1
1
1
1
1
1
1
1
1
1
1
1
1
1
1
1
1
1
1
1
1
1
1
1
1
1
1
1
1
1
1
1
1
1
1
1
1
1
1
1
1
1
1
1
1
1
1
1
1
1
1
1
1
1
1
1
1
1
1
1
1
1
1
1
1
1
1
1
1
1
1
1
1
1
1
1
1
1
1
1
1
1
1
1
1
1
1
1
1
1
1
1
1
1
1
1
1
1
1
1
1
1
1
1
1
1
1
1
1
1
1
1
1
1
1
1
1
1
1
1
1
1
1
1
1
1
1
1
1
1
1
1
1
1
1
1
1
1
1
1
1
1
1
1
1
1
1
1
1
1
1
1
1
1
1
1
1
1
1
1
1
1
1
1
1
1
1
1
1
1
1
1
1
1
1
1
1
1
1
1
1
1
1
1
1
1
1
1
1
1
1
1
1
1
1
1
1
1
1
1
1
1
1
1
1
1
1
1
1
1
1
1
1
1
1
1
1
1
1
1
1
1
1
1
1
1
1
1
1
1
1
1
1
1
1
1
1
1
1
1
1
1
1
1
1
1
1
1
1
1
1
1
1
1
1
1
1
1
1
1
1
1
1
1
1
1
1
1
1
1
1
1
1
1
1
1
1
1
1
1
1
1
1
1
1
1
1
1
1
1
1
1
1
1
1
1
1
1
1
1
1
1
1
1
1
1
1
1
1
1
1
1
1
1
1
1
1
1
1
1
1
1
1
1
1
1
1
1
1
1
1
1
1
1
1
1
1
1
1
1
1
1
1
1
1
1
1
1
1
1
1
1
1
1
1
1
1
1
1
1
1
1
1
1
1
1
1
1
1
1
1
1
1
1
1
1
1
1
1
1
1
1
1
1
1
1
1
1
1
1
1
1
1
1
1
1
1
1
1
1
1
1
1
1
1
1
1
1
1
1
1
1
1
1
1
1
1
1
1
1
1
1
1
1
1
1
1
1
1
1
1
1
1
1
1
1
1
1
1
1
1
1
1
1
1
1
1
1
1
1
1
1
1
1
1
1
1
1
1
1
1
1
1
1
1
1
1
1
1
1
1
1
1
1
1
1
1
1
1
1
1
1
1
1
1
1
1
1
1
1
1
1
1
1
1
1
1
1
1
1
1
1
1
1
1
1
1
1
1
1
1
1
1
1
1
1
1
1
1
1
1
1
1
1
1
1
1
1
1
1
1
1
1
1
1
1
1
1
1
1
1
1
1
1
1
1
1
1
1
1
1
1
1
1
1
1
1
1
1
1
1
1
1
1
1
1
1
1
1
1
1
1
1
1
1
1
1
1
1
1
1
1
1
1
1
1
1
1
1
1
1
1
1
1
1
1
1
1
1
1
1
1
1
1
1
1
1
1
1
1
1
1
1
1
1
1
1
1
1
1
1
1
1
1
1
1
1
1
1
1
1
1
1
1
1
1
1
1
1
1
1
1
1
1
1
1
1
1
1
1
1
1
1
1
1
1
1
1
1
1
1
1
1
1
1
1
1
1
1
1
1
1
1
1
1
1
1
1
1
1
1
1
1
1
1
1
1
1
1
1
1
1
1
1
1
1
1
1
1
1
1
1
1
1
1
1
1
1
1
1
1
1
1
1
1
1
1
1
1
1
1
1
1
1
1
1
1
1
1
1
1
1
1
1
1
1
1
1
1
1
1
1
1
1
1
1
1
1
1
1
1
1
1
1
1
1
1
1
1
1
1
1
1
1
1
1
1
1
1
1
1
1
1
1
1
1
1
1
1
1
1
1
1
1
1
1
1
1
1
1
1
1
1
1
1
1
1
1
1
VECTORS force double
-4.19593 0 -4.99978
17.1002 0 14.0022
-21.9058 0 -9.62992
-4.75592 0 21.3771
7.23499 0 22.5389
-36.8282 0 5.51597
25.005 0 22.3039
-33.6696 0 1.95558
23.0762 0 8.13112
-97.8306 0 -19.9746
101.753 0 25.3845
-36.981 0 -23.7448
-12.0945 0 -17.6247
7.32271 0 12.6615
-6.60887 0 6.75046
-28.2751 0 -8.70747
11.0218 0 -53.8634
-73.537 0 -133.614
0.0193054 0 8.36448
11.4934 0 15.8006
7.52416 0 16.8659
-1.42163 0 -12.671
10.0223 0 4.01399
-4.27079 0 -4.43242
-12.2611 0 -37.6368
-3.02933 0 18.3816
-37.5962 0 35.6467
50.521 0 -12.7614
-45.2889 0 7.38678
22.2747 0 1.96952
-22.2747 0 1.96952
45.2889 0 7.38677
-50.521 0 -12.7614
37.5962 0 35.6467
3.02933 0 18.3816
12.2611 0 -37.6368
4.2708 0 -4.43242
-10.0223 0 4.01399
1.42163 0 -12.671
-7.52416 0 16.8659
-11.4933 0 15.8006
-0.0193105 0 8.36451
73.5369 0 -133.614
-11.0218 0 -53.8635
28.2752 0 -8.70749
6.60884 0 6.75048
-7.32271 0 12.6615
12.0945 0 -17.6247
36.981 0 -23.7448
-101.753 0 25.3845
97.8306 0 -19.9746
-23.0762 0 8.13112
33.6696 0 1.95558
-25.005 0 22.3038
36.8282 0 5.51597
-7.23499 0 22.5389
4.75592 0 21.3771
21.9058 0 -9.62992
-17.1002 0 14.0022
4.19593 0 -4.99978
-8.2532 0 -1.52522
3.53637 0 -4.04565
-21.4696 0 -28.4146
68.1812 0 -21.9966
-6.99184 0 1.03767
23.0612 0 15.644
-25.0909 0 -13.5729
21.2467 0 -0.300755
-1.29035 0 -4.89174
-67.8354 0 -58.2375
93.9203 0 22.5115
-63.1125 0 69.0168
34.5246 0 7.71557
14.0811 0 -13.4564
-9.9392 0 -21.9943
13.1761 0 9.70049
21.3488 0 70.5883
9.50795 0 -1.58856
-14.9548 0 -45.4757
4.12186 0 1.85325
6.02304 0 1.71982
3.88638 0 5.13099
1.16515 0 12.4658
-42.3117 0 121.917
15.3282 0 24.1706
-2.2473 0 -3.10472
46.1057 0 -142.4
5.38001 0 0.876752
-10.2724 0 -70.7641
25.4217 0 18.155
-25.4217 0 18.155
10.2724 0 -70.7644
-5.38001 0 0.876747
-46.1057 0 -142.4
2.2473 0 -3.10472
-15.3282 0 24.1706
42.3117 0 121.917
-1.16517 0 12.4658
-3.88637 0 5.13098
-6.02304 0 1.71982
-4.12186 0 1.85323
14.9546 0 -45.4753
-9.50794 0 -1.58855
-21.3489 0 70.5884
-13.176 0 9.70047
9.93921 0 -21.9943
-14.0811 0 -13.4564
-34.5246 0 7.71551
63.1125 0 69.0168
-93.9202 0 22.5115
67.8353 0 -58.2375
1.29035 0 -4.89174
-21.2467 0 -0.300755
25.0909 0 -13.5729
-23.0612 0 15.644
6.99184 0 1.03767
-68.1812 0 -21.9966
21.4696 0 -28.4146
-3.53637 0 -4.04565
8.2532 0 -1.52522
2.28527 0 -39.0175
10.7944 0 10.62
6.38812 0 4.67394
-10.7278 0 51.3199
-5.16374 0 -19.1007
-8.85165 0 -35.4089
-37.4637 0 -105.288
-16.5786 0 -9.15456
39.5083 0 -44.468
40.1491 0 -39.641
-65.0854 0 -86.22
66.9719 0 -134.96
-15.0255 0 -21.5988
78.0173 0 7.06553
29.9437 0 1.35458
2.12521 0 0.288769
8.08334 0 -0.764232
-25.6248 0 -101.113
65.7852 0 143.261
4.40268 0 16.7966
2.69886 0 1.28848
3.96507 0 2.57566
-117.481 0 35.7415
122.311 0 -16.9364
-5.6754 0 21.6942
24.9591 0 2.47325
-26.7295 0 -63.8886
-4.80828 0 16.8129
11.2845 0 53.8025
2.50204 0 -5.66112
-2.50204 0 -5.66111
-11.2845 0 53.8027
4.80828 0 16.8129
26.7294 0 -63.8891
-24.9582 0 2.47319
5.67541 0 21.6941
-122.312 0 -16.9364
117.482 0 35.7416
-3.96508 0 2.57566
-2.69887 0 1.28848
-4.40266 0 16.7967
-65.7851 0 143.261
25.6248 0 -101.113
-8.08334 0 -0.764236
-2.12518 0 0.28875
-29.9437 0 1.35456
-78.0173 0 7.06556
15.0255 0 -21.5988
-66.9719 0 -134.96
65.0855 0 -86.22
-40.1491 0 -39.641
-39.5083 0 -44.468
16.5786 0 -9.15456
37.4637 0 -105.288
8.85165 0 -35.4089
5.16374 0 -19.1007
10.7278 0 51.3199
-6.38812 0 4.67394
-10.7944 0 10.62
-2.28527 0 -39.0175
-61.0137 0 -8.13839
45.8402 0 3.63295
-13.3395 0 0.686714
-21.7685 0 -0.0900027
3.08194 0 -2.57065
29.217 0 31.6912
45.9622 0 118.58
-37.4968 0 43.4614
-75.7284 0 121.274
-49.284 0 -2.56997
-126.337 0 79.8263
202.639 0 86.9463
9.63744 0 5.93818
-7.0365 0 -12.1861
-33.7155 0 8.43421
-27.794 0 -7.71006
37.6471 0 -15.8407
11.1531 0 118.097
-4.28365 0 9.09884
-5.04313 0 31.0791
14.6148 0 5.35696
-12.7083 0 10.7264
-1.50514 0 -2.28083
8.53698 0 -7.64928
1.60758 0 -3.476
-15.4958 0 -1.38898
-0.789738 0 -4.32174
28.876 0 77.2332
-28.9762 0 -2.18227
6.4367 0 -15.4746
-6.4367 0 -15.4747
28.9763 0 -2.18234
-28.8765 0 77.2333
0.790217 0 -4.32147
15.4949 0 -1.38892
-1.60757 0 -3.47597
-8.53695 0 -7.64928
1.50513 0 -2.28084
12.7083 0 10.7264
-14.6145 0 5.35675
5.04304 0 31.0788
4.28365 0 9.09884
-11.1531 0 118.097
-37.6472 0 -15.8408
27.7941 0 -7.70995
33.7155 0 8.43422
7.03651 0 -12.1861
-9.63741 0 5.93818
-202.639 0 86.9463
126.337 0 79.8263
49.2841 0 -2.56998
75.7284 0 121.274
37.4968 0 43.4614
-45.9622 0 118.58
-29.217 0 31.6912
-3.08194 0 -2.57066
21.7685 0 -0.0900028
13.3395 0 0.686715
-45.8402 0 3.63295
61.0137 0 -8.13839
-3.4274 0 26.2796
3.45949 0 -2.02062
21.9532 0 -61.0166
-34.7307 0 -8.1392
42.4597 0 -2.74709
-3.8136 0 -11.7201
27.2315 0 -43.127
-0.233074 0 11.9871
-13.4689 0 -24.4969
-13.3776 0 -14.6681
53.0257 0 -7.21455
7.49553 0 -71.6783
-2.02835 0 -1.87617
19.013 0 -11.8864
18.8523 0 18.7176
-151.191 0 183.216
112.212 0 -215.727
-3.85041 0 -3.83247
-34.6998 0 -4.34938
23.306 0 -15.9271
-14.0056 0 5.16151
6.46883 0 6.3051
-6.35052 0 -9.83114
-25.6134 0 5.5274
-10.8562 0 -16.9829
33.9999 0 11.75
-24.3067 0 -138.976
-3.07062 0 -9.98562
-34.999 0 -1.62103
47.4229 0 -3.84231
-47.4232 0 -3.84244
34.9996 0 -1.6211
3.07114 0 -9.98517
24.3052 0 -138.978
-33.9997 0 11.7504
10.8554 0 -16.9831
25.6141 0 5.52748
6.3506 0 -9.83111
-6.46886 0 6.30516
14.0055 0 5.1615
-23.3061 0 -15.9271
34.6998 0 -4.34929
3.85042 0 -3.83253
-112.212 0 -215.727
151.191 0 183.216
-18.8523 0 18.7176
-19.013 0 -11.8863
2.02834 0 -1.87617
-7.49556 0 -71.6783
-53.0257 0 -7.21455
13.3776 0 -14.6681
13.469 0 -24.4969
0.233073 0 11.9871
-27.2315 0 -43.127
3.8136 0 -11.7201
-42.4597 0 -2.74709
34.7307 0 -8.1392
-21.9532 0 -61.0166
-3.45949 0 -2.02062
3.4274 0 26.2796
13.7039 0 2.45574
-59.8932 0 0.849646
21.3592 0 63.7796
-18.8447 0 -9.29327
-82.5377 0 -115.863
-6.05617 0 11.3305
-43.7267 0 29.7231
49.8359 0 -38.6368
-27.8515 0 -30.5019
15.651 0 27.5052
-42.047 0 65.6677
-24.068 0 62.1241
8.88654 0 -4.82725
4.05111 0 3.70955
0.199508 0 3.72194
-4.97377 0 -4.18182
4.91168 0 -35.1215
61.3715 0 45.3909
3.2345 0 19.5002
7.41181 0 18.6428
-20.7714 0 -18.8176
-2.45155 0 -10.0335
11.5688 0 -2.52618
1.01227 0 26.4132
7.35507 0 7.29244
-5.65184 0 0.626934
-22.1208 0 34.4462
-28.8385 0 87.1179
3.42055 0 9.43757
-6.12809 0 -4.218
6.12808 0 -4.21741
-3.42056 0 9.43761
28.8366 0 87.1189
22.1226 0 34.4476
5.65147 0 0.626491
-7.35481 0 7.29287
-1.01278 0 26.4133
-11.5687 0 -2.52611
2.45146 0 -10.0336
20.7714 0 -18.8175
-7.41172 0 18.6428
-3.23451 0 19.5003
-61.3716 0 45.391
-4.91168 0 -35.1216
4.97377 0 -4.18181
-0.199503 0 3.72191
-4.05111 0 3.70956
-8.88652 0 -4.82727
24.068 0 62.1241
42.047 0 65.6677
-15.651 0 27.5052
27.8515 0 -30.5019
-49.8359 0 -38.6368
43.7267 0 29.7231
6.05616 0 11.3305
82.5377 0 -115.863
18.8447 0 -9.29327
-21.3592 0 63.7796
59.8932 0 0.849644
-13.7039 0 2.45574
14.9502 0 -29.7892
-7.66106 0 14.3598
87.445 0 22.1712
-13.0955 0 -7.66543
41.4794 0 92.2761
24.499 0 13.7257
-12.8398 0 25.7698
7.62971 0 -93.8655
64.1414 0 52.4018
8.96017 0 12.1549
-8.43164 0 -12.9728
-17.3141 0 -2.40661
0.350788 0 18.481
-26.7151 0 20.5808
20.6724 0 -15.2883
-0.111594 0 3.29627
-6.4082 0 -30.4315
-5.21868 0 -6.01936
2.24375 0 -3.20615
-34.8309 0 8.72227
50.7392 0 10.3183
-11.6591 0 -6.03007
4.98978 0 -5.74858
-85.3375 0 -120.359
-3.55481 0 6.35923
-0.414629 0 -13.6117
12.2758 0 -37.9671
54.9512 0 -16.2095
4.04561 0 39.0262
-44.0967 0 8.62569
44.0967 0 8.62593
-4.04517 0 39.0255
-54.9503 0 -16.2096
-12.2755 0 -37.9672
0.414207 0 -13.6118
3.5547 0 6.35935
85.3382 0 -120.36
-4.98943 0 -5.74899
11.6589 0 -6.02983
-50.7391 0 10.3184
34.8308 0 8.72229
-2.24376 0 -3.20613
5.21869 0 -6.01939
6.40794 0 -30.4315
0.111587 0 3.29628
-20.6724 0 -15.2883
26.7151 0 20.5808
-0.350783 0 18.481
17.3141 0 -2.4066
8.43164 0 -12.9728
-8.96018 0 12.1549
-64.1414 0 52.4017
-7.62972 0 -93.8655
12.8398 0 25.7698
-24.499 0 13.7257
-41.4794 0 92.2761
13.0955 0 -7.66543
-87.445 0 22.1712
7.66106 0 14.3598
-14.9502 0 -29.7892
-7.55464 0 17.2655
-2.83281 0 -2.75148
-6.88238 0 -0.49016
-21.9891 0 15.1563
9.64966 0 19.526
-2.962 0 16.7458
-5.36607 0 2.74995
-59.669 0 78.9015
-40.9574 0 -0.272654
12.8858 0 -11.7073
-55.7264 0 -18.1183
-28.3985 0 11.1412
87.2717 0 -37.692
26.6598 0 -37.2419
-78.9565 0 11.2637
73.1221 0 -41.6431
-64.0202 0 57.4099
45.9083 0 -0.603636
-9.73579 0 -9.99444
-11.1005 0 0.074764
4.74949 0 -2.21012
20.1548 0 13.2228
-10.4854 0 -6.65851
-26.966 0 -77.1746
88.9218 0 109.751
-10.8275 0 -0.964247
4.89017 0 -23.0195
10.8699 0 39.0359
-32.3241 0 15.9228
65.9638 0 -55.8838
-65.9632 0 -55.8821
32.3238 0 15.9218
-10.8702 0 39.0364
-4.88994 0 -23.0207
10.8271 0 -0.963687
-88.9225 0 109.751
26.9645 0 -77.1715
10.4858 0 -6.65922
-20.1546 0 13.2228
-4.74949 0 -2.21027
11.1004 0 0.0747631
9.73579 0 -9.99442
-45.9082 0 -0.603608
64.0204 0 57.4098
-73.1219 0 -41.6432
78.9564 0 11.2637
-26.6598 0 -37.2419
-87.2718 0 -37.692
28.3985 0 11.1412
55.7264 0 -18.1183
-12.8858 0 -11.7073
40.9574 0 -0.272654
59.6691 0 78.9015
5.36606 0 2.74996
2.96201 0 16.7458
-9.64967 0 19.526
21.9891 0 15.1563
6.88238 0 -0.49016
2.8328 0 -2.75148
7.55464 0 17.2655
-20.1001 0 -13.7921
45.8232 0 21.0704
9.01416 0 15.4682
-10.7082 0 -10.5707
-13.6922 0 2.88447
-9.43918 0 -64.8144
-11.4126 0 11.75
15.7311 0 -35.4928
4.58513 0 23.2204
70.6454 0 -108.224
50.2285 0 30.1226
-14.426 0 -12.4483
-37.182 0 -13.1079
-8.37024 0 -57.2267
-29.8552 0 -35.3784
-19.119 0 37.8046
-2.39862 0 -41.2971
25.3851 0 -99.4109
3.0731 0 -3.92669
7.61623 0 5.22342
13.3503 0 -13.9313
4.36757 0 -2.6344
-15.089 0 -18.2558
18.0221 0 77.7223
-474.913 0 -40.5331
484.192 0 45.484
8.88192 0 21.795
-36.6957 0 30.5947
39.0776 0 -12.1359
-4.75957 0 29.5169
4.75996 0 29.5158
-39.1156 0 -12.1546
36.6957 0 30.5959
-8.88206 0 21.7955
-484.197 0 45.4842
474.917 0 -40.5341
-18.0209 0 77.7199
15.0887 0 -18.2552
-4.36766 0 -2.63444
-13.3503 0 -13.9314
-7.61621 0 5.22341
-3.07312 0 -3.92677
-25.3855 0 -99.4112
2.39866 0 -41.2972
19.1189 0 37.8046
29.8552 0 -35.3785
8.37029 0 -57.2267
37.182 0 -13.1079
14.426 0 -12.4483
-50.2284 0 30.1226
-70.6455 0 -108.224
-4.58513 0 23.2204
-15.7311 0 -35.4928
11.4126 0 11.75
9.43919 0 -64.8144
13.6922 0 2.88447
10.7082 0 -10.5707
-9.01416 0 15.4682
-45.8232 0 21.0704
20.1001 0 -13.7921
-1.80459 0 -16.0012
1.82212 0 9.10075
17.3319 0 -12.3216
107.188 0 -147.214
24.8266 0 -34.8631
13.387 0 5.76087
-52.1041 0 -48.1351
45.7484 0 19.7527
68.7874 0 -126.862
-79.7821 0 107.43
-28.6034 0 -46.2477
-13.3701 0 -10.8497
-24.2915 0 -10.0068
43.5265 0 87.6328
3.12668 0 -52.9665
42.4731 0 31.9718
-2.3162 0 8.13329
-29.8045 0 89.4101
-0.160325 0 15.3281
24.7768 0 19.6816
-5.34807 0 -2.63028
-5.25086 0 16.5489
-4.77726 0 -121.286
20.1483 0 30.0125
-18.5925 0 -7.78048
38.3157 0 -17.2715
7.33213 0 -10.7294
-57.39 0 -7.31102
14.6399 0 23.8172
3.04392 0 -2.75638
-3.04575 0 -2.75777
-14.6333 0 23.8149
57.4231 0 -7.29182
-7.33242 0 -10.7312
-38.3154 0 -17.271
18.5922 0 -7.77889
-20.1473 0 30.012
4.77703 0 -121.285
5.25093 0 16.5488
5.34805 0 -2.63016
-24.7767 0 19.6817
0.160375 0 15.328
29.8045 0 89.4107
2.31619 0 8.1333
-42.4732 0 31.9719
-3.12665 0 -52.9663
-43.5265 0 87.6327
24.2916 0 -10.0068
13.3701 0 -10.8497
28.6034 0 -46.2477
79.7821 0 107.43
-68.7874 0 -126.862
-45.7484 0 19.7527
52.1041 0 -48.1351
-13.387 0 5.76087
-24.8266 0 -34.8631
-107.188 0 -147.214
-17.3319 0 -12.3216
-1.82213 0 9.10074
1.80459 0 -16.0012
11.5472 0 7.72339
-1.25763 0 -15.7633
-103.944 0 74.4929
-158.378 0 119.488
-21.0106 0 2.67167
10.1788 0 12.0602
-43.8188 0 -20.8803
10.2776 0 59.9726
-62.6944 0 122.073
-19.4099 0 -29.1792
17.4927 0 12.5451
12.3014 0 -11.6155
3.25733 0 -12.8121
-78.7035 0 89.0684
9.47093 0 34.7842
38.3456 0 24.4325
-1.24345 0 -51.9848
-264.129 0 -179.646
-83.6544 0 14.2225
11.9775 0 17.1111
-8.19302 0 -6.3611
-15.5741 0 -7.76588
16.5056 0 2.07508
-4.3165 0 119.098
-15.7214 0 -11.2522
-7.41832 0 27.6578
-27.3805 0 -26.6681
0.144032 0 1.59269
4.81584 0 -16.0427
-7.74613 0 -16.5805
7.74706 0 -16.575
-4.81767 0 -16.0417
-0.14368 0 1.59454
27.3806 0 -26.6668
7.41822 0 27.6561
15.7221 0 -11.2521
4.3161 0 119.098
-16.5055 0 2.07525
15.5741 0 -7.76642
8.19295 0 -6.36113
-11.9774 0 17.1109
83.6546 0 14.2225
264.129 0 -179.646
1.24343 0 -51.9848
-38.3456 0 24.4326
-9.47098 0 34.7842
78.7035 0 89.0683
-3.25733 0 -12.8121
-12.3014 0 -11.6155
-17.4926 0 12.5451
19.4099 0 -29.1792
62.6943 0 122.073
-10.2776 0 59.9726
43.8188 0 -20.8803
-10.1788 0 12.0602
21.0106 0 2.67164
158.379 0 119.488
103.944 0 74.4929
1.2576 0 -15.7633
-11.5472 0 7.72339
-80.8724 0 4.46057
57.9623 0 -9.04103
7.59065 0 2.1723
-10.7819 0 0.340635
124.246 0 -50.7232
-4.72673 0 10.134
19.0294 0 9.3919
26.2625 0 42.9257
-8.82508 0 -13.7421
0.276023 0 -23.8448
8.7532 0 43.1764
-20.257 0 -38.6735
-35.2786 0 9.2544
74.5278 0 53.6215
4.5159 0 12
-28.3409 0 -5.7249
-0.284758 0 -30.1089
20.1289 0 54.7914
-3.01574 0 -47.0733
81.7595 0 -13.8926
5.02894 0 -3.62654
-6.48322 0 18.9735
6.3512 0 -20.5174
-14.9125 0 -13.2924
-58.0795 0 -11.8331
56.7438 0 -36.8335
59.9855 0 -37.5586
8.61989 0 47.277
-9.9476 0 3.99481
-8.4108 0 17.9323
8.41146 0 17.9276
9.94647 0 3.99436
-8.61988 0 47.2766
-59.9939 0 -37.5651
-56.7412 0 -36.8346
58.0788 0 -11.8327
14.9117 0 -13.2922
-6.35125 0 -20.5178
6.48365 0 18.974
-5.02867 0 -3.62657
-81.7598 0 -13.8926
3.01588 0 -47.0733
-20.129 0 54.7915
0.284771 0 -30.109
28.341 0 -5.72476
-4.51591 0 12
-74.5277 0 53.6215
35.2786 0 9.25439
20.2571 0 -38.6735
-8.7532 0 43.1764
-0.276013 0 -23.8448
8.82508 0 -13.7421
-26.2625 0 42.9257
-19.0294 0 9.39192
4.7267 0 10.134
-124.246 0 -50.7232
10.7819 0 0.340633
-7.59065 0 2.1723
-57.9623 0 -9.04102
80.8723 0 4.46057
-25.5428 0 -4.08275
47.0908 0 20.5618
4.8616 0 8.01816
7.42296 0 8.75548
-43.9823 0 4.7444
-14.8434 0 -60.2145
72.8664 0 43.4786
12.2441 0 30.8017
-4.54056 0 -33.1783
17.8234 0 0.139154
1.8146 0 -3.38058
-6.52523 0 10.5745
27.1485 0 35.3337
-19.1138 0 17.4453
12.9184 0 -2.05322
-56.5152 0 9.68283
99.3902 0 -96.2468
-20.0006 0 -5.75977
-72.8718 0 -60.3495
307.962 0 149.572
24.7952 0 -45.8496
-8.76496 0 10.1786
-5.92011 0 -5.859
15.6271 0 0.830799
-7.22331 0 22.3583
-31.1385 0 83.0098
29.1959 0 -123.486
-13.0047 0 -14.3516
-21.2756 0 -63.6717
-77.9646 0 -2.19591
77.9678 0 -2.1936
21.2765 0 -63.6765
13.0039 0 -14.3503
-29.193 0 -123.483
31.1458 0 83.0191
7.22313 0 22.3568
-15.6277 0 0.831272
5.92043 0 -5.85896
8.76478 0 10.1783
-24.7952 0 -45.8497
-307.962 0 149.572
72.8715 0 -60.3499
20.0008 0 -5.75984
-99.3904 0 -96.2468
56.5154 0 9.68284
-12.9184 0 -2.05322
19.1138 0 17.4453
-27.1485 0 35.3337
6.52523 0 10.5745
-1.8146 0 -3.38059
-17.8234 0 0.139153
4.54056 0 -33.1783
-12.2441 0 30.8017
-72.8663 0 43.4786
14.8433 0 -60.2145
43.9823 0 4.74444
-7.42297 0 8.75548
-4.8616 0 8.01817
-47.0908 0 20.5618
25.5428 0 -4.08275
4.25744 0 17.9119
21.622 0 -2.09288
4.79359 0 -6.37412
-10.6457 0 -23.0504
3.31179 0 -25.5841
-61.1628 0 12.6365
58.4751 0 4.47901
-31.0329 0 -2.92119
9.20667 0 17.9056
-49.8396 0 -28.0998
47.8184 0 35.3406
10.2878 0 -19.7063
-16.2947 0 -13.603
-17.9302 0 -34.6616
-7.49617 0 -20.1319
-68.8838 0 102.867
13.4037 0 118.271
10.2028 0 -112.799
8.89756 0 99.8127
-112.648 0 106.029
-23.2728 0 24.7699
73.6273 0 -2.94506
-18.9515 0 -3.25585
16.5123 0 3.51369
-71.4176 0 -19.9351
75.9121 0 11.4429
-51.4773 0 46.0534
37.0586 0 67.4324
-73.244 0 0.80001
64.8105 0 87.7828
-64.819 0 87.7849
73.2496 0 0.800364
-37.0597 0 67.4304
51.4739 0 46.0507
-75.9128 0 11.4431
71.4192 0 -19.9346
-16.5131 0 3.51367
18.9523 0 -3.25566
-73.6281 0 -2.94508
23.2732 0 24.7695
112.648 0 106.029
-8.89774 0 99.8134
-10.2025 0 -112.8
-13.4037 0 118.272
68.8838 0 102.867
7.49619 0 -20.132
17.9302 0 -34.6617
16.2947 0 -13.603
-10.2878 0 -19.7063
-47.8184 0 35.3406
49.8396 0 -28.0998
-9.20667 0 17.9056
31.0329 0 -2.92119
-58.4751 0 4.47901
61.1628 0 12.6365
-3.31179 0 -25.5841
10.6457 0 -23.0504
-4.79358 0 -6.37412
-21.622 0 -2.09288
-4.25744 0 17.9119
9.56831 0 2.81676
-8.4248 0 -32.446
-3.94685 0 14.9101
3.00158 0 -1.62803
3.51669 0 32.3147
9.61798 0 -15.6469
-38.069 0 -19.3602
32.8148 0 -10.0543
10.9127 0 10.2776
-1.64943 0 12.0975
-66.1206 0 3.84173
69.6853 0 -24.757
-16.507 0 -47.5066
27.927 0 6.44489
-68.8282 0 -17.7382
33.9216 0 32.106
0.664712 0 6.72886
7.83816 0 1.64938
-8.72918 0 5.95941
6.35883 0 7.79561
111.269 0 -58.9691
-5.60134 0 -17.7883
2.61552 0 -13.9197
-2.52037 0 35.2301
-21.5859 0 -74.3603
-1.06062 0 -31.3673
-19.6364 0 -64.5841
-6.50126 0 -21.5802
-8.27053 0 -7.01485
-1.54808 0 -6.82804
1.54779 0 -6.82817
8.27017 0 -7.01504
6.50244 0 -21.5852
19.6358 0 -64.5814
1.06161 0 -31.3657
21.5832 0 -74.3648
2.5202 0 35.2297
-2.61557 0 -13.9199
5.6013 0 -17.7883
-111.269 0 -58.9686
-6.35874 0 7.79552
8.72841 0 5.95988
-7.83815 0 1.6494
-0.664736 0 6.7289
-33.9216 0 32.1061
68.8282 0 -17.7383