# vtk DataFile Version 3.0
SiWiRVisFile
ASCII
DATASET UNSTRUCTURED_GRID
POINTS 1600 DOUBLE
76.4608 100 72.5119
75.9459 100 73.5079
77.0073 100 73.9293
79.059 100 73.7527
80.1393 100 74.0549
81.3074 100 74.4314
83.1085 100 74.232
84.1709 100 74.5472
85.2122 100 74.8772
84.3248 100 73.4212
91.9771 100 70.8772
91.3179 100 70.0079
91.118 100 71.5126
90.1319 100 69.9017
86.7716 100 69.1623
90.4061 100 61.119
91.4669 100 60.8377
93.0285 100 59.6283
89.5539 100 54.8175
94.8746 100 58.2577
104.796 100 40.7903
106.182 100 40.264
106.2 100 38.9837
107.227 100 39.5995
105.082 100 38.5654
111.222 100 39.8784
110.684 100 33.5947
111.719 100 32.2145
110.996 100 34.8743
111.757 100 33.8398
112.9 100 33.9644
113.878 100 34.4852
112.436 100 32.9715
113.79 100 33.1769
113.277 100 40.2149
119.434 100 38.5859
117.15 100 39.4841
118.169 100 39.0514
118.075 100 40.1328
119.723 100 40.7778
129.388 100 58.0034
134.939 100 54.8175
131.33 100 59.41
132.921 100 61.7138
134.25 100 61.1827
135.875 100 69.7947
134.86 100 69.3586
134.33 100 71.8673
133.502 100 69.5589
133.224 100 71.1432
140.43 100 73.5954
138.934 100 74.978
140.191 100 74.7005
141.393 100 74.2028
143.233 100 74.5787
144.282 100 74.1837
145.338 100 73.6677
147.491 100 73.729
148.516 100 73.46
148.105 100 72.4242
75.1564 100 74.2468
76.188 100 74.6111
78.1058 100 74.4852
79.246 100 74.8169
80.4003 100 75.0944
82.3872 100 74.9883
83.371 100 75.2712
84.4068 100 75.6184
85.5132 100 75.9706
86.595 100 76.1428
87.6534 100 75.912
91.7551 100 68.9023
90.0719 100 71.2843
90.9614 100 66.7814
91.9544 100 63.162
90.6874 100 68.9408
92.4866 100 60.5471
94.0594 100 59.8761
95.082 100 59.5054
97.7199 100 58.8292
105.283 100 39.6894
97.4593 100 46.4737
106.453 100 48.8507
110.531 100 37.4072
108.201 100 38.9741
110.133 100 40.0114
110.025 100 38.7622
109.424 100 37.8374
107.531 100 31.7123
112.042 100 35.4261
113.01 100 35.1355
117.136 100 31.7543
114.052 100 36.843
115.126 100 38.2816
114.588 100 39.7187
115.799 100 39.6656
114.133 100 37.9759
118.285 100 48.3206
127.033 100 46.4737
119.152 100 39.7204
126.542 100 58.7412
128.564 100 59.5061
130.269 100 58.8999
132.52 100 60.5206
133.062 100 68.6125
132.368 100 62.9033
132.929 100 66.2755
134.479 100 70.7571
132.414 100 69.5052
137.018 100 76.3864
138 100 75.8434
139.069 100 76.1172
140.093 100 75.7832
141.122 100 75.2493
142.253 100 74.9998
144.171 100 75.2703
145.249 100 74.8978
146.267 100 74.2697
148.363 100 74.5063
149.368 100 74.1386
75.1967 100 75.3743
76.2867 100 75.7214
77.2148 100 75.0552
78.2983 100 75.5892
79.3976 100 75.8837
81.4727 100 75.5299
82.4901 100 76.1546
83.5118 100 76.4183
84.6743 100 76.7367
85.7976 100 77.1575
87.1256 100 77.1326
87.3121 100 78.2556
89.2128 100 76.6383
91.3327 100 67.8104
92.3612 100 65.2178
93.1356 100 64.3936
92.6667 100 61.6851
93.6509 100 60.9542
94.7648 100 60.5892
96.8957 100 58.1035
98.1631 100 57.8775
104.374 100 50.0598
105.409 100 49.4798
106.601 100 50.0515
101.469 100 46.6843
107.522 100 48.9321
107.024 100 47.8816
105.48 100 48.3606
110.454 100 36.3436
111.657 100 36.4198
112.904 100 36.2408
113.987 100 35.6931
120.567 100 47.4081
117.273 100 47.7736
117.522 100 49.5053
121.26 100 48.2636
117.886 100 50.7145
118.878 100 49.8291
120.093 100 51.0808
125.645 100 57.7544
127.94 100 58.4315
130.497 100 60.2757
131.455 100 60.682
131.681 100 61.8374
132.494 100 63.9565
132.091 100 65.4436
132.9 100 67.5288
134.951 100 76.8906
136.748 100 77.405
137.775 100 77.2461
138.791 100 77.2077
139.85 100 76.7811
140.929 100 76.5441
142.004 100 76.1428
143.06 100 75.8095
145.075 100 75.9782
146.289 100 75.4121
147.292 100 74.9641
148.266 100 75.6565
149.286 100 75.2246
75.3366 100 76.4156
76.4262 100 76.8145
77.3474 100 76.097
78.5268 100 76.668
80.5394 100 76.2166
81.5177 100 76.7674
82.7466 100 77.231
84.1148 100 77.7166
85.137 100 78.0501
86.2492 100 78.2399
87.1601 100 79.2783
89.1255 100 77.8684
88.2486 100 77.2847
92.4824 100 67.8886
92.0508 100 66.9578
93.3194 100 65.6392
94.6646 100 63.1786
93.2127 100 62.9663
94.2522 100 61.9393
95.3866 100 61.5947
95.8499 100 60.6412
98.9652 100 58.8965
104.343 100 48.8259
105.478 100 54.2478
105.528 100 50.5493
105.959 100 52.1076
108.316 100 51.0309
110.646 100 51.5466
108.16 100 48.1257
111.143 100 38.5385
113.654 100 39.0314
116.412 100 48.6686
115.213 100 49.9074
115.858 100 50.9477
118.237 100 51.8081
118.916 100 50.8877
119.561 100 51.9812
119.886 100 49.1837
125.252 100 58.7366
128.14 100 60.5083
129.523 100 61.4006
130.255 100 62.1786
131.327 100 62.9167
131.247 100 63.9559
130.826 100 65.0875
131.939 100 66.8821
132.009 100 68.1452
135.976 100 76.2562
136.11 100 78.986
137.27 100 78.5396
138.403 100 78.3738
139.633 100 78.0246
140.898 100 77.6628
141.937 100 77.2316
142.994 100 76.8646
144.01 100 76.3627
145.96 100 76.6032
147.161 100 76.1576
148.097 100 76.7616
149.252 100 76.327
75.2394 100 77.4897
76.4798 100 77.8364
77.4967 100 77.2147
79.6252 100 77.0047
80.6008 100 77.399
81.6438 100 77.8064
82.8535 100 78.329
83.5963 100 79.125
84.814 100 79.0814
86.0498 100 79.4051
86.8182 100 80.6055
89.7749 100 78.9371
90.7304 100 76.6242
94.3407 100 65.7976
93.1904 100 66.8143
95.2844 100 64.0754
96.2798 100 63.5901
95.5369 100 62.6059
96.5749 100 61.6204
97.3366 100 60.7846
96.7943 100 59.5103
102.783 100 57.9256
104.913 100 52.9472
107.089 100 52.3233
107.237 100 50.9935
108.081 100 52.4051
109.479 100 52.232
110.55 100 52.6452
107.88 100 49.931
111.517 100 41.1476
112.656 100 41.1231
116.437 100 49.9523
114.334 100 52.4227
115.179 100 51.7492
116.383 100 52.2691
116.958 100 51.3401
117.489 100 52.55
117.787 100 53.6042
121.464 100 57.2128
127.311 100 59.5731
126.986 100 60.6158
127.892 100 61.6547
129.285 100 62.4975
130.179 100 63.6255
129.027 100 63.8115
130.976 100 67.5629
130.302 100 66.0105
135.779 100 77.9072
135.064 100 78.7224
137.721 100 80.5276
138.047 100 79.3438
139.405 100 79.1021
140.489 100 78.7566
141.624 100 78.501
142.891 100 77.9482
143.945 100 77.5029
144.913 100 77.0442
146.954 100 77.2756
147.985 100 77.9166
149.327 100 77.3942
75.5499 100 78.5548
76.5895 100 79.0691
77.6296 100 78.4801
78.5514 100 77.7055
79.6513 100 78.1385
80.7581 100 78.4868
81.7498 100 79.017
82.6265 100 79.6639
83.471 100 80.2505
84.614 100 80.2159
85.7179 100 80.3898
88.3206 100 78.8729
90.1972 100 79.9807
88.7248 100 75.6263
91.205 100 75.5324
94.2799 100 64.5925
96.394 100 64.6182
97.3509 100 64.0191
97.1946 100 62.9409
97.6126 100 61.8076
98.047 100 59.852
100.836 100 59.2368
103.967 100 56.2736
104.824 100 55.4986
106.279 100 53.2883
107.585 100 53.5502
108.576 100 54.6069
108.758 100 53.2559
111.616 100 51.9286
111.483 100 50.8025
114.39 100 50.7402
112.978 100 53.4157
115.422 100 52.9772
115.787 100 53.9654
116.622 100 53.3051
118.978 100 52.8867
118.812 100 53.9067
121.236 100 56.045
123.57 100 59.9548
126.141 100 59.8285
126.777 100 61.604
128.239 100 62.9703
127.677 100 63.9429
128.225 100 64.9181
129.865 100 64.5955
134.1 100 74.8807
134.931 100 74.313
134.549 100 79.7285
137.015 100 79.7581
138.777 100 80.1545
140.07 100 79.9749
141.001 100 80.4317
141.944 100 79.6853
142.77 100 79.0466
143.783 100 78.6016
144.758 100 78.2068
145.959 100 77.6917
146.854 100 78.4635
147.885 100 79.0958
149.061 100 78.5746
74.6585 100 79.1353
75.6141 100 79.6592
77.6423 100 79.6371
78.7412 100 78.8593
79.7712 100 79.1859
79.5496 100 82.0047
81.442 100 80.3258
82.4857 100 80.817
83.5389 100 81.3067
84.7699 100 81.3724
86.0072 100 81.4413
89.1306 100 79.9346
91.0328 100 80.6519
89.913 100 75.3692
95.7497 100 66.5365
95.5407 100 65.2792
96.5769 100 65.7473
98.6059 100 64.5067
98.1959 100 62.7488
98.4557 100 60.9423
99.8242 100 59.5257
101.912 100 58.805
103.702 100 57.3253
106.655 100 54.3292
108.942 100 55.6711
109.531 100 54.0074
108.423 100 57.8775
110.687 100 53.6805
107.599 100 58.5512
109.088 100 58.9725
115.953 100 58.4616
116.236 100 57.4153
114.525 100 53.7786
115.131 100 57.741
114.801 100 55.2328
116.007 100 55.1678
116.786 100 54.4133
120.287 100 57.388
121.968 100 58.577
124.882 100 60.1656
125.505 100 61.2552
127.03 100 62.7258
126.477 100 63.7765
127.159 100 65.8175
129.268 100 65.5466
129.402 100 66.8275
134.832 100 75.7594
131.284 100 81.9663
135.574 100 79.8954
138.446 100 81.4559
139.536 100 80.9972
140.611 100 81.3993
142.1 100 80.7676
142.965 100 80.1143
144.723 100 80.2734
144.806 100 79.2757
145.742 100 78.7587
146.875 100 79.6547
148.879 100 79.6164
149.949 100 79.3396
74.4129 100 80.4174
75.4006 100 80.8818
76.6806 100 80.1295
77.7437 100 80.7299
78.6944 100 80.231
78.6411 100 81.3192
80.4441 100 80.9613
81.6103 100 81.4839
82.6472 100 81.9028
84.0394 100 82.3556
85.2171 100 82.3463
86.503 100 82.364
87.9567 100 80.0491
87.6557 100 81.6129
87.5658 100 82.7307
91.4187 100 79.7333
96.6118 100 67.2757
97.576 100 65.131
100.294 100 63.3561
99.1687 100 63.4822
99.0112 100 62.0703
99.5098 100 60.6972
104.613 100 58.3494
106.249 100 55.438
107.542 100 55.3693
109.088 100 56.9574
108.082 100 56.4834
105.767 100 59.1863
106.932 100 59.4164
109.37 100 61.1646
115.284 100 59.6973
118.94 100 59.2351
119.424 100 60.1965
116.636 100 56.3882
115.393 100 56.6929
117.195 100 55.4215
117.9 100 54.6497
120.748 100 58.327
124.421 100 61.1997
125.94 100 62.2091
125.217 100 63.3669
125.714 100 64.5385
126.802 100 64.72
128.318 100 66.2025
131.859 100 81.0594
136.401 100 82.2641
137.361 100 81.5791
136.546 100 80.801
137.437 100 82.6678
138.588 100 82.9757
139.486 100 82.1083
141.591 100 81.8762
142.789 100 81.7046
143.78 100 80.8964
145.694 100 81.3237
145.791 100 79.7933
146.78 100 80.7386
147.844 100 80.4448
149.036 100 81.1465
149.718 100 80.3531
74.4931 100 81.694
75.3304 100 82.3513
76.5853 100 81.27
77.5493 100 81.8517
78.3784 100 83.9602
77.3058 100 84.6328
78.4552 100 82.4467
80.6358 100 82.048
81.5678 100 82.6626
80.5838 100 83.268
82.6736 100 83.3388
84.4386 100 83.2872
85.9393 100 83.4882
87.0566 100 83.6277
88.8941 100 83.2698
90.8488 100 78.7741
97.4432 100 67.9059
97.4625 100 66.6793
99.7574 100 64.2775
100.472 100 65.2924
100.766 100 61.1701
[...]
POINT_DATA 1600
SCALARS mass double
LOOKUP_TABLE default
1
1
1
1
1
1
1
1
1
1
1
1
1
1
1
1
1
1
1
1
1
1
1
1
1
1
1
1
1
1
1
1
1
1
1
1
1
1
1
1
1
1
1
1
1
1
1
1
1
1
1
1
1
1
1
1
1
1
1
1
1
1
1
1
1
1
1
1
1
1
1
1
1
1
1
1
1
1
1
1
1
1
1
1
1
1
1
1
1
1
1
1
1
1
1
1
1
1
1
1
1
1
1
1
1
1
1
1
1
1
1
1
1
1
1
1
1
1
1
1
1
1
1
1
1
1
1
1
1
1
1
1
1
1
1
1
1
1
1
1
1
1
1
1
1
1
1
1
1
1
1
1
1
1
1
1
1
1
1
1
1
1
1
1
1
1
1
1
1
1
1
1
1
1
1
1
1
1
1
1
1
1
1
1
1
1
1
1
1
1
1
1
1
1
1
1
1
1
1
1
1
1
1
1
1
1
1
1
1
1
1
1
1
1
1
1
1
1
1
1
1
1
1
1
1
1
1
1
1
1
1
1
1
1
1
1
1
1
1
1
1
1
1
1
1
1
1
1
1
1
1
1
1
1
1
1
1
1
1
1
1
1
1
1
1
1
1
1
1
1
1
1
1
1
1
1
1
1
1
1
1
1
1
1
1
1
1
1
1
1
1
1
1
1
1
1
1
1
1
1
1
1
1
1
1
1
1
1
1
1
1
1
1
1
1
1
1
1
1
1
1
1
1
1
1
1
1
1
1
1
1
1
1
1
1
1
1
1
1
1
1
1
1
1
1
1
1
1
1
1
1
1
1
1
1
1
1
1
1
1
1
1
1
1
1
1
1
1
1
1
1
1
1
1
1
1
1
1
1
1
1
1
1
1
1
1
1
1
1
1
1
1
1
1
1
1
1
1
1
1
1
1
1
1
1
1
1
1
1
1
1
1
1
1
1
1
1
1
1
1
1
1
1
1
1
1
1
1
1
1
1
1
1
1
1
1
1
1
1
1
1
1
1
1
1
1
1
1
1
1
1
1
1
1
1
1
1
1
1
1
1
1
1
1
1
1
1
1
1
1
1
1
1
1
1
1
1
1
1
1
1
1
1
1
1
1
1
1
1
1
1
1
1
1
1
1
1
1
1
1
1
1
1
1
1
1
1
1
1
1
1
1
1
1
1
1
1
1
1
1
1
1
1
1
1
1
1
1
1
1
1
1
1
1
1
1
1
1
1
1
1
1
1
1
1
1
1
1
1
1
1
1
1
1
1
1
1
1
1
1
1
1
1
1
1
1
1
1
1
1
1
1
1
1
1
1
1
1
1
1
1
1
1
1
1
1
1
1
1
1
1
1
1
1
1
1
1
1
1
1
1
1
1
1
1
1
1
1
1
1
1
1
1
1
1
1
1
1
1
1
1
1
1
1
1
1
1
1
1
1
1
1
1
1
1
1
1
1
1
1
1
1
1
1
1
1
1
1
1
1
1
1
1
1
1
1
1
1
1
1
1
1
1
1
1
1
1
1
1
1
1
1
1
1
1
1
1
1
1
1
1
1
1
1
1
1
1
1
1
1
1
1
1
1
1
1
1
1
1
1
1
1
1
1
1
1
1
1
1
1
1
1
1
1
1
1
1
1
1
1
1
1
1
1
1
1
1
1
1
1
1
1
1
1
1
1
1
1
1
1
1
1
1
1
1
1
1
1
1
1
1
1
1
1
1
1
1
1
1
1
1
1
1
1
1
1
1
1
1
1
1
1
1
1
1
1
1
1
1
1
1
1
1
1
1
1
1
1
1
1
1
1
1
1
1
1
1
1
1
1
1
1
1
1
1
1
1
1
1
1
1
1
1
1
1
1
1
1
1
1
1
1
1
1
1
1
1
1
1
1
1
1
1
1
1
1
1
1
1
1
1
1
1
1
1
1
1
1
1
1
1
1
1
1
1
1
1
1
1
1
1
1
1
1
1
1
1
1
1
1
1
1
1
1
1
1
1
1
1
1
1
1
1
1
1
1
1
1
1
1
1
1
1
1
1
1
1
1
1
1
1
1
1
1
1
1
1
1
1
1
1
1
1
1
1
1
1
1
1
1
1
1
1
1
1
1
1
1
1
1
1
1
1
1
1
1
1
1
1
1
1
1
1
1
1
1
1
1
1
1
1
1
1
1
1
1
1
1
1
1
1
1
1
1
1
1
1
1
1
1
1
1
1
1
1
1
1
1
1
1
1
1
1
1
1
1
1
1
1
1
1
1
1
1
1
1
1
1
1
1
1
1
1
1
1
1
1
1
1
1
1
1
1
1
1
1
1
1
1
1
1
1
1
1
1
1
1
1
1
1
1
1
1
1
1
1
1
1
1
1
1
1
1
1
1
1
1
1
1
1
1
1
1
1
1
1
1
1
1
1
1
1
1
1
1
1
1
1
1
1
1
1
1
1
1
1
1
1
1
1
1
1
1
1
1
1
1
1
1
1
1
1
1
1
1
1
1
1
1
1
1
1
1
1
1
1
1
1
1
1
1
1
1
1
1
1
1
1
1
1
1
1
1
1
1
1
1
1
1
1
1
1
1
1
1
1
1
1
1
1
1
1
1
1
1
1
1
1
1
1
1
1
1
1
1
1
1
1
1
1
1
1
1
1
1
1
1
1
1
1
1
1
1
1
1
1
1
1
1
1
1
1
1
1
1
1
1
1
1
1
1
1
1
1
1
1
1
1
1
1
1
1
1
1
1
1
1
1
1
1
1
1
1
1
1
1
1
1
1
1
1
1
1
1
1
1
1
1
1
1
1
1
1
1
1
1
1
1
1
1
1
1
1
1
1
1
1
1
1
1
1
1
1
1
1
1
1
1
1
1
1
1
1
1
1
1
1
1
1
1
1
1
1
1
1
1
1
1
1
1
1
1
1
1
1
1
1
1
1
1
1
1
1
1
1
1
1
1
1
1
1
1
1
1
1
1
1
1
1
1
1
1
1
1
1
1
1
1
1
1
1
1
1
1
1
1
1
1
1
1
1
1
1
1
1
1
1
1
1
1
1
1
1
1
1
1
1
1
1
1
1
1
1
1
1
1
1
1
1
1
1
1
1
1
1
1
1
1
1
1
1
1
1
1
1
1
1
1
1
1
1
1
1
1
1
1
1
1
1
1
1
1
1
1
1
1
1
1
1
1
1
1
1
1
1
1
1
1
1
1
1
1
1
1
1
1
1
1
1
1
1
1
1
1
1
1
1
1
1
1
1
1
1
1
1
1
1
1
1
1
1
1
1
1
1
1
1
1
1
1
1
1
1
1
1
1
1
1
1
1
1
1
1
1
1
1
1
1
1
1
1
1
1
1
1
1
1
1
1
1
1
1
1
1
1
1
1
1
1
1
1
1
1
1
1
1
1
1
1
1
1
1
1
1
1
1
1
1
1
1
1
1
1
1
1
1
1
1
1
1
1
1
1
1
1
1
1
1
1
1
1
1
1
1
1
1
1
1
1
1
1
1
1
1
1
1
1
1
1
1
1
1
1
1
1
1
1
1
1
1
1
1
1
1
1
1
1
1
1
1
1
1
1
1
1
1
1
1
1
1
1
1
1
1
1
1
1
1
1
1
1
1
1
1
1
1
1
1
1
1
VECTORS force double
1.71047 0 5.72542
17.8633 0 -6.0183
26.2281 0 -11.6449
-12.2649 0 -8.18769
-1.60816 0 -10.6742
-0.78363 0 0.223167
26.6792 0 -59.0649
4.81093 0 -24.6977
16.71 0 -0.25763
-5.1269 0 10.6477
26.239 0 -7.07585
-22.0442 0 -24.5269
2.92241 0 14.1155
10.6025 0 13.8328
0 0 0
-7.92534 0 2.25561
-15.7516 0 10.0087
-13.9285 0 -23.6958
0 0 0
1.98052 0 13.922
10.5992 0 -13.1629
27.0894 0 -2.08765
-5.79202 0 18.1274
-14.6686 0 -3.20079
11.4753 0 9.52325
10.2054 0 -1.69878
-1.29055 0 6.6975
-34.9502 0 -29.9746
14.434 0 -8.45904
5.01264 0 18.6207
0.104672 0 11.3698
15.1523 0 -5.6901
42.6469 0 25.0481
-17.2971 0 17.0027
14.5156 0 -20.8916
-12.0134 0 12.9454
-11.6483 0 4.31446
23.9884 0 -14.2589
5.29506 0 11.6075
-7.49594 0 -11.2515
2.00486 0 12.4746
0 0 0
-12.741 0 17.9718
-15.7197 0 -3.16834
-8.36848 0 2.23081
3.15181 0 3.96032
-17.9623 0 5.4288
-9.06139 0 -5.35772
44.0675 0 49.7838
19.3713 0 -2.79921
3.22595 0 7.18589
11.0574 0 16.5092
-14.4578 0 -23.5964
-1.31937 0 -6.53691
29.3608 0 8.21895
19.3889 0 -6.56866
-13.1687 0 15.4804
-33.2313 0 25.4701
27.4109 0 -46.3127
-3.57567 0 5.2558
-19.6778 0 11.1166
-20.5345 0 25.9417
36.5092 0 -25.2171
-1.47654 0 1.41123
-6.68181 0 33.5193
-86.8312 0 3.89279
46.298 0 69.014
3.89276 0 35.5319
-18.6425 0 7.96302
-14.237 0 14.9534
11.5784 0 14.3073
25.0533 0 -9.03266
-20.8989 0 -15.8722
-7.92126 0 -9.85534
14.9446 0 -2.5831
-11.4941 0 -2.49586
32.077 0 24.4087
-63.7238 0 -60.7543
17.2928 0 -5.97702
-10.4627 0 28.4109
-21.4415 0 -13.2835
0 0 0
-18.9903 0 22.8392
-0.139925 0 43.9523
-3.02392 0 2.07778
-8.11466 0 -11.7596
12.4368 0 12.4829
6.18035 0 -7.97804
0 0 0
-83.5611 0 -1.47546
78.3689 0 -32.0792
0 0 0
-9.97003 0 -7.57811
48.1323 0 25.1822
-1.23228 0 -8.40412
-4.41629 0 -5.54904
-54.6074 0 -10.9759
-8.1339 0 8.65056
0 0 0
-8.26851 0 -2.26071
-11.246 0 1.57434
-10.5884 0 -23.4971
-0.0290548 0 5.02913
19.0545 0 10.4743
-20.5423 0 -42.6865
40.88 0 -49.4657
-14.6411 0 9.74574
-9.49028 0 -9.67104
-17.4604 0 -2.12525
55.53 0 -26.2104
3.39608 0 2.87896
-68.8875 0 -42.4251
37.2026 0 -65.9608
17.4333 0 47.2631
-37.0261 0 20.1938
-8.87825 0 9.43485
5.418 0 -26.7701
14.0184 0 17.5339
-37.1635 0 54.0082
31.807 0 -12.5097
11.3239 0 -47.5901
-7.21012 0 -3.87377
-28.7131 0 -18.276
18.0538 0 -25.2458
12.2665 0 24.9825
-28.2007 0 38.9586
-44.2295 0 -33.744
57.4893 0 1.52099
2.10696 0 0.593691
9.0413 0 -17.9388
-7.54889 0 1.48936
52.2952 0 -63.9881
0.644621 0 10.6566
6.64814 0 30.6546
-38.4432 0 -16.6437
8.83864 0 6.00538
9.32002 0 -6.71589
-7.26181 0 -5.24816
59.3338 0 95.9898
3.84886 0 1.2526
13.2408 0 -25.6739
20.7278 0 -13.0979
-0.842931 0 -23.1799
-2.02043 0 -15.3089
0 0 0
-38.5383 0 24.9499
7.07403 0 11.5443
-18.1321 0 -0.51152
11.5253 0 -29.817
-13.7456 0 24.4532
1.06343 0 -2.3097
-13.3784 0 -0.671194
-5.33502 0 -4.49014
-2.75164 0 14.0229
0.423287 0 5.08426
2.01665 0 7.54346
-44.0202 0 -20.6661
-8.33951 0 -34.7441
9.58839 0 -43.4931
20.303 0 -23.6281
-1.60971 0 21.2639
-45.1793 0 -30.2404
28.739 0 23.5098
9.99308 0 0.335177
-13.8699 0 33.6456
-5.74171 0 4.95559
4.69151 0 -34.1057
9.71234 0 7.86743
-52.412 0 46.2358
-31.4027 0 0.734442
91.3755 0 8.57462
33.9719 0 135.481
20.3843 0 -9.95106
-7.02392 0 -18.221
8.91078 0 -59.1399
-10.4135 0 -24.2958
-22.4583 0 15.0864
15.7649 0 -7.06288
-15.0381 0 -2.52477
-5.77748 0 -0.687544
24.9005 0 19.1579
-6.26554 0 -70.8504
-9.24964 0 60.2454
-4.17261 0 -53.4688
-11.9478 0 7.45924
10.6576 0 -57.9003
-15.0997 0 3.59817
-34.0914 0 -5.05582
23.4906 0 -11.8192
-28.5586 0 2.11399
-8.56646 0 55.4685
36.7694 0 28.8033
-37.8734 0 -22.2767
21.3203 0 64.3001
-15.2478 0 -68.6387
-17.2598 0 2.62226
-56.3144 0 10.9579
-2.88144 0 -1.80097
10.5727 0 1.2047
-31.4895 0 -51.182
39.2612 0 -29.9282
-48.8907 0 -16.651
22.514 0 14.2554
15.6589 0 -1.97964
3.85764 0 14.0802
3.32722 0 14.1464
12.8593 0 2.84666
-55.4783 0 -19.2824
33.0715 0 -53.0171
-11.6182 0 0.992264
8.7537 0 7.58295
14.8999 0 9.94018
14.0891 0 16.8007
29.7302 0 -37.2507
35.1856 0 -28.1672
61.0459 0 57.0053
-30.3481 0 11.4897
-8.21733 0 4.26348
1.98531 0 45.1329
-22.1685 0 16.0659
-19.2749 0 -24.2508
108.369 0 5.95831
-60.993 0 -51.3819
4.3753 0 61.205
42.3554 0 -29.1774
4.94414 0 9.88186
-14.1309 0 2.35691
-56.9176 0 6.12569
56.4068 0 -26.1014
-13.9262 0 -5.37207
34.5344 0 -72.6371
-3.16297 0 -24.9069
-21.993 0 1.22098
-4.78442 0 22.4006
-1.63734 0 16.4903
7.95095 0 16.4332
32.0922 0 -12.5483
-6.1642 0 -12.6074
8.33675 0 14.1802
-23.8642 0 -20.3073
16.8184 0 15.3289
5.19586 0 88.7255
2.43884 0 12.0253
-43.4893 0 -19.2984
22.6655 0 4.55343
28.4985 0 52.7775
-21.8168 0 3.64646
28.9966 0 8.51285
-6.14251 0 24.7138
8.12109 0 -59.421
9.64769 0 -4.4177
-28.5652 0 -2.12151
0.342682 0 -67.8459
69.1846 0 -3.51808
-9.03297 0 -4.67724
15.2487 0 24.9986
-5.77577 0 -68.5055
60.7197 0 56.5521
-54.4958 0 -6.48167
-11.0127 0 -45.2591
13.5367 0 4.93984
-13.5834 0 13.1121
19.6453 0 2.82875
-134.917 0 -3.39765
-17.5398 0 -0.580527
121.585 0 -0.7756
-2.15587 0 8.8379
-5.41815 0 -47.4949
-4.93867 0 47.5551
0.926503 0 -12.5697
-9.23249 0 5.40658
-1.74937 0 -2.15664
-2.89946 0 24.766
-5.01978 0 26.3996
-28.9978 0 -21.4832
7.04068 0 -4.58783
-37.6024 0 12.3689
-39.2832 0 -37.7214
-16.1876 0 7.06541
15.1825 0 -11.0015
21.5832 0 -83.4424
-0.0927172 0 1.93063
-80.2238 0 41.5646
21.1673 0 -91.2882
-4.11418 0 -2.28613
15.6409 0 -4.37813
-25.8504 0 30.2586
-4.8567 0 -14.5221
-36.8852 0 13.1354
32.5059 0 30.8187
-19.4225 0 58.2945
-27.9921 0 3.49982
4.94229 0 3.62953
18.8899 0 7.87729
-16.0808 0 -1.54227
-45.5997 0 -14.0445
27.8918 0 21.8239
27.7317 0 -5.17359
-4.60409 0 4.73817
-16.367 0 34.7812
41.8483 0 -19.8061
4.84695 0 -42.3692
-2.54387 0 -8.05804
5.99774 0 64.588
-3.99181 0 -46.0565
-16.0135 0 12.318
-3.95494 0 -15.6886
-56.3285 0 -25.3448
57.4909 0 5.37181
-8.50226 0 1.11549
-26.9858 0 42.5205
-4.0627 0 5.1988
23.4929 0 -26.0233
14.9437 0 -0.0146212
-15.9081 0 8.89816
-2.63303 0 11.2655
23.022 0 50.5134
6.65122 0 14.1576
-82.8118 0 -13.5465
53.6817 0 37.7272
3.88561 0 26.4894
43.5625 0 -12.2616
18.9252 0 -10.872
14.2959 0 8.57752
-1.41474 0 -15.9706
-2.20974 0 -11.2734
-12.8941 0 -6.70522
-9.8047 0 -0.402817
36.5531 0 23.5402
0.379818 0 3.22989
19.9718 0 6.59529
5.60505 0 -1.39614
-12.5581 0 -48.6531
-28.7137 0 60.3062
33.9434 0 7.02656
-20.2395 0 -49.5662
2.17181 0 64.6671
-0.22135 0 13.1884
13.7853 0 6.85966
1.60841 0 -2.71167
20.2124 0 61.1441
-4.6979 0 -8.33012
-13.2917 0 -4.49249
5.66124 0 13.9462
-42.9984 0 69.5655
-84.3424 0 64.6094
87.7355 0 -52.7368
-56.4038 0 -21.4959
-48.264 0 -47.2552
23.1268 0 7.48815
-52.5779 0 -16.7783
80.7988 0 -23.6324
-58.2002 0 10.8085
19.6565 0 -41.3346
-19.2649 0 27.8969
65.1594 0 -39.1016
-27.7552 0 12.0427
6.05689 0 -2.62301
-5.12764 0 -7.27817
-6.2417 0 -40.8117
-34.9951 0 19.8522
16.2944 0 28.8398
22.834 0 -28.8854
-30.033 0 -8.12217
27.566 0 39.7163
-20.6861 0 7.48241
10.0014 0 3.14758
9.53319 0 -23.0609
32.2129 0 21.7787
-12.824 0 -27.7468
-29.181 0 -25.4751
-36.5622 0 -17.8818
-32.3335 0 130.693
-0.746475 0 15.2089
3.81182 0 -15.3402
-26.9004 0 12.1362
9.26583 0 3.88301
2.01541 0 3.6579
65.1216 0 20.4963
-24.2082 0 15.1914
-20.1176 0 40.7846
1.26623 0 -5.76173
19.337 0 16.3493
4.36404 0 12.9274
-13.6526 0 14.1877
22.6389 0 8.45532
27.7816 0 -16.7881
-5.75854 0 48.0453
-9.61641 0 16.5481
-19.5197 0 2.28779
1.38685 0 28.7304
-1.12164 0 -4.82604
17.5809 0 -9.90863
-5.74406 0 8.99814
15.5106 0 -5.98235
-9.4558 0 11.8676
29.2878 0 -25.5235
-13.5558 0 -33.8747
-16.1864 0 -8.06303
8.06135 0 3.54913
2.05641 0 -45.8531
3.85433 0 2.14085
-20.5821 0 -144.222
2.41443 0 6.79276
-9.31691 0 6.37591
-2.08314 0 -25.044
8.85848 0 -1.27289
-18.9958 0 12.4738
46.0302 0 34.9148
24.5823 0 -8.54773
-0.0135594 0 -7.85894
-42.2112 0 39.4254
-17.0228 0 36.708
23.456 0 10.0757
0.125893 0 117.872
-25.2877 0 -88.1471
26.4871 0 -56.8726
22.0052 0 -25.8125
-23.0194 0 45.7539
9.15332 0 -59.3425
-0.23583 0 -8.32159
21.6527 0 7.36549
-15.5074 0 46.966
-59.3078 0 11.0864
14.3274 0 -40.3982
9.97721 0 37.4977
10.2055 0 -0.578989
-19.2496 0 1.41755
-19.4465 0 36.0631
-31.9184 0 -99.3083
16.5234 0 30.2405
14.5632 0 50.6364
4.11143 0 -1.89111
-16.7767 0 -7.641
36.6125 0 -49.0555
34.4541 0 -110.648
-84.5259 0 -6.31424
-3.27977 0 1.7799
11.1702 0 -28.6738
-99.1684 0 -125.381
27.0498 0 -29.0708
24.5869 0 -5.7173
-0.516379 0 6.02909
4.61191 0 -1.77914
6.3854 0 -6.54764
-1.52777 0 -6.67518
13.8366 0 -10.8053
-2.21636 0 11.3143
-23.4342 0 3.93222
27.4873 0 -73.2352
6.16631 0 -6.89065
-38.4333 0 7.82574
14.622 0 3.47057
-12.3818 0 -11.921
13.2322 0 -28.7165
-48.4397 0 37.677
50.1254 0 5.36194
54.8775 0 40.1593
-34.1286 0 -48.6121
-29.8522 0 89.9364
16.2196 0 -4.77567
-31.2815 0 18.2734
55.0075 0 129.326
-5.15983 0 -5.46942
2.11765 0 -25.5835
4.86867 0 0.2287
-20.4763 0 -2.91334
6.92466 0 -8.43435
19.4143 0 10.1619
13.0496 0 -20.5374
-15.0576 0 -17.9539
28.8171 0 7.26355
5.6035 0 -20.0878
-7.84017 0 13.2238
9.95752 0 -3.10022
-6.08343 0 72.373
-15.7801 0 29.4514
7.19904 0 -64.9614
-66.3487 0 19.2909
19.0709 0 29.8051
-13.2174 0 -36.9299
38.0892 0 15.7406
-1.24137 0 -7.17457
-11.1252 0 -63.924
6.27438 0 -67.5939
-17.1348 0 -26.7062
118.344 0 -31.4549
13.5654 0 19.1993
13.8249 0 -18.6434
-40.6743 0 -91.0784
-16.7525 0 -8.09734
100.123 0 47.9719
-11.8303 0 -6.74652
-24.3818 0 63.5042
-7.42934 0 2.87083
16.548 0 0.823058
57.5914 0 24.4894
56.0603 0 -32.3782
67.8299 0 164.359
32.8088 0 -27.2852
-12.9171 0 -1.50037
-1.98052 0 -10.621
-16.1098 0 -7.96333
3.04864 0 -17.8197
-74.6105 0 1.80931
-29.1298 0 -5.00657
15.9157 0 -39.4551
-10.4775 0 -52.4834
48.0252 0 22.8181
22.7015 0 -13.7502
11.8381 0 15.6317
7.87478 0 7.09351
25.0192 0 -40.8011
-8.05814 0 3.90256
14.6423 0 -10.3024
-1.01813 0 -3.81054
-18.7159 0 11.1496
10.5673 0 -19.0817
-18.1354 0 -9.34779
12.4088 0 0.544751
13.2228 0 14.8271
27.6151 0 -36.1297
-8.3098 0 -8.89764
2.47939 0 -10.1096
1.9408 0 24.3312
2.27098 0 -12.4821
-5.6405 0 -0.988258
-28.1324 0 -54.758
9.14584 0 5.54398
2.38319 0 -1.47814
5.31181 0 -7.46648
2.22887 0 15.6878
-5.3367 0 4.6602
8.86477 0 9.1355
-36.9767 0 0.194495
-44.0204 0 -31.8861
-3.70653 0 -11.6274
-2.38367 0 47.9536
-2.53826 0 -17.8072
20.9783 0 5.56893
16.2869 0 -10.1611
-17.5118 0 -5.59289
1.08976 0 7.60525
2.98966 0 28.7326
-77.5198 0 90.9004
-3.85994 0 0.469239
-77.3383 0 -88.0393
37.3197 0 87.2682
-27.4311 0 2.43821
5.75431 0 77.7215
56.1573 0 28.9649
-41.4561 0 43.0825
62.0504 0 -43.0912
36.3019 0 -19.5746
-13.0665 0 13.1613
9.17222 0 5.94036
18.2701 0 -16.2549
-13.5878 0 63.1331
-31.9386 0 -7.92855
2.80311 0 1.94472
-14.5583 0 11.5655
11.8344 0 -22.6572
-13.8298 0 1.76754
-19.8095 0 -63.4453
20.2876 0 63.1117
-13.8963 0 34.7618
-84.8939 0 -83.9099
7.53302 0 3.6707
-8.1368 0 -15.514
-6.72801 0 -13.9772
11.8927 0 -8.24297
7.34942 0 -9.94749
-22.8483 0 -2.63013
2.97076 0 -35.829
20.8188 0 -9.82327
-13.3913 0 8.97662
18.1931 0 -55.6653
20.076 0 46.1978
-35.5978 0 -1.17996
-45.7217 0 68.473
8.41501 0 -6.056
45.401 0 5.39871
12.3741 0 -19.4352
12.7973 0 -0.177576
-32.0211 0 7.79622
4.50776 0 23.4575
22.2017 0 81.6716
-20.6146 0 28.3617
13.3734 0 -62.7137
-7.70752 0 12.208
-32.0582 0 -30.5888
43.8726 0 -20.5814
12.9567 0 38.0309
-65.2433 0 69.3321
-18.7942 0 3.7658
27.363 0 -40.6746
25.3796 0 -3.80026
1.8222 0 5.84207
5.94559 0 5.25446
43.1774 0 -47.1248
3.99213 0 12.4655
13.9475 0 10.9232
-4.49237 0 -4.6487
-12.057 0 0.667518
15.8322 0 18.0687
-13.0593 0 3.15846
-19.4132 0 -3.32038
3.69344 0 -28.5019
-11.7812 0 -0.946509
-117.447 0 24.597
120.871 0 -22.9308
-80.5016 0 18.2508
16.3183 0 -1.58829
2.63743 0 -7.95218
1.07285 0 4.10612
-0.670166 0 -12.5114
-29.9984 0 15.7233
19.8686 0 12.3478
-11.0914 0 -1.31048
20.1967 0 -1.45295
-19.0977 0 20.0203
2.59994 0 -19.5439
-4.91877 0 -4.57529
-9.97218 0 9.60313
-13.3882 0 19.0465
55.2403 0 21.1645
43.673 0 -15.877
-2.17466 0 -68.9117
-100.697 0 80.9418
-5.78493 0 -24.9168
-9.08158 0 8.99083
4.97721 0 4.39632
13.4142 0 44.8537
-6.90151 0 9.62793
29.2046 0 40.9783
-26.6004 0 -2.06719
-9.53476 0 7.76167
17.8345 0 -81.5031
10.4106 0 9.42935
31.0817 0 -126.987
-6.96469 0 9.73618
30.7566 0 5.17254
15.4067 0 -9.98181
-4.81686 0 2.59532
11.5224 0 -65.4003
14.2397 0 56.5943
-11.7368 0 -13.3931
22.1539 0 9.88636
0.129859 0 0.144868
34.6824 0 49.147
-18.8339 0 9.3556
36.9918 0 16.002
-30.2595 0 -71.614
-15.5469 0 -5.22135
10.4918 0 36.3694
4.34272 0 -2.92871
-25.5295 0 2.308
-12.345 0 13.5271
-8.87031 0 -6.70108
10.8444 0 4.26544
-2.70947 0 -18.3648
13.967 0 4.80938
-14.2054 0 36.7436
-7.72243 0 -7.99375
-2.52675 0 -46.0547
-4.67592 0 10.5142
20.9565 0 -12.1036
74.4227 0 78.123
-25.3478 0 -33.9082
2.39382 0 -0.858794
-4.06107 0 -21.9359
-21.3103 0 7.25007
-2.41524 0 32.5221
6.85815 0 -18.0452
-10.5035 0 -4.52261
-19.9938 0 36.3491
-23.3914 0 -84.8017
21.9781 0 -17.0333
14.9992 0 -15.4721
8.53232 0 -17.2985
-26.4476 0 15.9669
-5.88104 0 -17.3172
-65.8754 0 9.99986
-2.34168 0 16.7667
38.6799 0 -20.6205
-8.25491 0 -11.764
-1.67962 0 2.59486
6.01533 0 -17.4136
91.3069 0 82.8495
36.0361 0 7.67716
-11.3164 0 -1.15007
-3.39019 0 -6.6893
21.235 0 6.05604
-1.21998 0 15.2853
-9.58264 0 11.4191
14.8726 0 33.6689
-107.386 0 6.7757
114.57 0 -19.9643
-67.9605 0 107.873
12.2383 0 30.5015
14.2305 0 -49.2439
-13.0556 0 -8.86059
-1.69794 0 15.1768
33.2501 0 -99.8684
-39.3418 0 117.323
1.90965 0 18.2505
0.655616 0 -26.0926
-16.5862 0 -0.545814
-33.3382 0 22.0393
-69.5704 0 -63.1604
7.32914 0 37.0822
6.89376 0 3.23937
57.7395 0 -6.93981
11.8933 0 34.6528
-17.2111 0 18.9186
2.68537 0 -32.2082
18.1087 0 -11.9304
-49.3021 0 6.25401
-11.4695 0 -15.0076
8.47012 0 10.1959
21.768 0 29.8188
-6.97489 0 -37.6039
-7.82306 0 -41.5343
5.12136 0 4.30268
10.7549 0 16.3697
32.2333 0 -26.4137
1.08653 0 1.60851
3.18252 0 3.24042
0.161906 0 -13.1722
-28.023 0 -56.1827
-9.29876 0 6.80213
-13.8343 0 -0.913127
4.36012 0 -1.0635
-13.5177 0 -8.77475
14.5422 0 -2.39798
-3.87635 0 5.06369
37.1547 0 76.8841
5.55161 0 13.8597
-32.0462 0 -82.2841
-0.756159 0 62.7333
-26.7471 0 -12.802
0.863266 0 13.9953
-25.0945 0 -30.0543
-19.1853 0 -24.5847
-0.187995 0 -0.0602888
-46.1691 0 -35.476
2.70364 0 22.3307
-0.928198 0 81.7648
2.25251 0 -0.970449
-14.1517 0 61.3845
-13.5023 0 11.404
-55.3299 0 -4.29114
11.5004 0 -10.7265
5.75837 0 15.0433
-2.59728 0 -37.4689
-2.03187 0 -10.7732
-2.23981 0 -4.71034
-1.02974 0 6.90708
-26.1617 0 28.7834
-52.7937 0 11.6462
-22.5696 0 76.7021
21.2511 0 35.0858
-13.4574 0 11.579
76.8284 0 73.7441
-2.21252 0 -7.24731
2.36187 0 -13.6549
-60.5794 0 -44.4995
-8.57827 0 -10.3841
9.65371 0 -21.5459
1.72903 0 -10.1043
15.3913 0 24.5002
-6.76224 0 -6.84962
-44.4409 0 43.3509
-28.0742 0 -18.9214
-11.0725 0 -4.70199
2.56909 0 18.9002
-16.1742 0 21.9854
-9.89477 0 -15.0801
61.4466 0 -17.1593
-10.7706 0 18.2105
11.8974 0 10.4847
15.1399 0 -5.02729
0.555707 0 33.0264
-17.5406 0 -34.3043
-48.1071 0 -33.684
0.681186 0 6.71653
-5.8169 0 8.51228
22.4899 0 22.894
-2.04225 0 6.55677
19.7662 0 87.1729
-69.2423 0 -98.8255
8.63739 0 5.4871
80.3731 0 76.435
-16.6632 0 6.87191
-36.3402 0 12.9854
-27.5575 0 15.4776
3.49881 0 -4.34683
6.22026 0 5.01613
-49.4096 0 -65.6248
-9.29353 0 9.33588
-3.21645 0 -42.6981
1.6655 0 -4.07331
0.380101 0 -2.40597
-32.1613 0 32.1517
50.2601 0 21.6675
-22.9755 0 -24.6002
-23.5201 0 8.97942
-7.07851 0 12.8887
-7.04589 0 2.00495
10.33 0 13.4131
16.6247 0 -4.797
18.5408 0 -29.8331
-5.98385 0 -20.8268
1.4383 0 -0.39406
5.292 0 -4.78126
12.6968 0 35.0376
-16.325 0 14.4141
-4.07248 0 4.05772
96.591 0 -68.2413
0.125155 0 -76.1064
28.2164 0 -10.8781
-6.6789 0 1.17678
25.2351 0 -0.691854
-4.56961 0 -18.4311
-83.3224 0 -48.6033
9.60087 0 18.4966
61.5675 0 24.7818
13.4271 0 0.450725
14.5458 0 53.8423
-16.2705 0 -29.4414
17.2642 0 -50.6781
-13.1712 0 -3.55607
28.8972 0 -13.1123
-14.3606 0 13.6405
-9.23244 0 16.4055
33.1306 0 -1.11143
-3.38183 0 -12.6128
0.0821377 0 22.6796
2.77412 0 -6.62868
-23.2233 0 -31.9728
14.2315 0 8.22699
-16.7697 0 15.6855
-3.688 0 -15.3404
-21.8009 0 -17.7438
-7.22724 0 45.9731
-97.1097 0 47.3665
19.7605 0 -40.2895
20.1107 0 19.2379
-2.1968 0 1.81857
14.279 0 13.8746
-10.9385 0 -1.98558
-20.3019 0 22.0079
-5.64145 0 -20.9342
-11.4939 0 -19.1216
21.9951 0 20.717
-10.3598 0 18.2042
18.1062 0 -0.574053
-3.6035 0 -15.4854
14.4475 0 18.2299
5.94283 0 -3.42025
-11.4366 0 8.73507
22.6446 0 24.6915
11.2201 0 2.14207
-17.705 0 -29.727
28.5735 0 15.092
5.4772 0 33.8299
42.1619 0 21.5722
-24.5004 0 -17.5048
11.8982 0 -16.1466
-15.1824 0 0.728529
1.06329 0 16.9396
-17.688 0 -12.1426
-20.3969 0 8.45326
-2.59085 0 -11.7806
3.27921 0 10.9186
-2.62644 0 -5.08473
-3.54525 0 -7.78041
81.0796 0 -17.9038
37.3854 0 0.503026
-63.1554 0 76.7276
3.66386 0 -7.05324
26.0892 0 6.34628
-33.1887 0 -91.1405
-10.8866 0 -12.7772
18.5362 0 29.4547
-1.86251 0 -2.03988
22.2647 0 -31.8059
2.43562 0 8.4227
20.6401 0 -5.09289
-13.5815 0 40.3533
21.123 0 21.5296