# vtk DataFile Version 3.0
SiWiRVisFile
ASCII
DATASET UNSTRUCTURED_GRID
POINTS 1600 DOUBLE
79.1772 100 76.2169
80.2764 100 76.5527
81.3724 100 76.7382
82.4996 100 76.6354
83.5731 100 76.7566
84.6786 100 76.6817
85.741 100 76.657
86.8197 100 76.6539
87.9487 100 76.6452
89.1065 100 76.6106
90.2761 100 76.5641
91.4387 100 76.5353
92.5868 100 76.5189
93.7223 100 76.5105
94.8521 100 76.5052
95.9791 100 76.5032
97.1026 100 76.5025
98.2236 100 76.5013
99.3442 100 76.5005
100.467 100 76.5017
101.592 100 76.2961
102.707 100 76.5021
103.83 100 76.4984
104.951 100 76.4987
106.073 100 76.4978
107.195 100 76.4974
108.318 100 76.4967
109.44 100 76.4956
110.563 100 76.4951
111.685 100 76.495
112.807 100 76.495
113.93 100 76.4951
115.052 100 76.4956
116.175 100 76.4967
117.297 100 76.4974
118.419 100 76.4978
119.541 100 76.4987
120.663 100 76.4984
121.786 100 76.5021
122.901 100 76.2961
124.026 100 76.5017
125.148 100 76.5005
126.269 100 76.5013
127.39 100 76.5025
128.513 100 76.5032
129.64 100 76.5052
130.77 100 76.5105
131.906 100 76.5189
133.054 100 76.5353
134.216 100 76.5641
135.386 100 76.6106
136.544 100 76.6452
137.673 100 76.6539
138.751 100 76.657
139.814 100 76.6817
140.919 100 76.7566
141.993 100 76.6354
143.12 100 76.7382
144.216 100 76.5527
145.315 100 76.2169
79.5129 100 77.3168
80.6763 100 77.7169
82.0095 100 77.6069
83.0889 100 77.7126
84.2229 100 77.7243
85.3295 100 77.7138
86.4294 100 77.668
87.5334 100 77.6111
88.6166 100 77.5894
89.6744 100 77.5945
90.7106 100 77.5979
91.7476 100 77.6044
92.7787 100 77.6069
93.8198 100 77.6075
94.8737 100 77.6062
95.9372 100 77.6056
97.0536 100 77.6052
98.1827 100 77.604
99.3125 100 77.6031
100.445 100 77.606
101.545 100 77.3142
102.686 100 77.6041
103.815 100 77.5061
104.94 100 77.5197
106.065 100 77.504
107.19 100 77.4913
108.315 100 77.479
109.439 100 77.4697
110.562 100 77.4659
111.685 100 77.4645
112.808 100 77.4645
113.93 100 77.4659
115.053 100 77.4697
116.177 100 77.479
117.302 100 77.4913
118.427 100 77.504
119.552 100 77.5197
120.677 100 77.5061
121.807 100 77.6041
122.947 100 77.3142
124.047 100 77.606
125.18 100 77.6031
126.31 100 77.604
127.439 100 77.6052
128.555 100 77.6056
129.619 100 77.6062
130.673 100 77.6075
131.714 100 77.6069
132.745 100 77.6044
133.782 100 77.5979
134.818 100 77.5945
135.876 100 77.5894
136.959 100 77.6111
138.063 100 77.668
139.163 100 77.7138
140.269 100 77.7243
141.404 100 77.7126
142.483 100 77.6069
143.816 100 77.7169
144.98 100 77.3168
79.7012 100 78.4133
80.571 100 79.045
81.4726 100 78.5081
82.5461 100 78.6886
83.628 100 78.672
84.7625 100 78.6379
85.9024 100 78.6124
87.0413 100 78.6216
88.1849 100 78.6487
89.3262 100 78.6743
90.4606 100 78.6898
91.5953 100 78.7024
92.7245 100 78.7062
93.8341 100 78.7053
94.9315 100 78.7023
96.0384 100 78.7024
97.1501 100 78.7032
98.2621 100 78.7024
99.3764 100 78.7018
100.508 100 78.7091
101.643 100 78.404
102.722 100 78.6127
103.852 100 78.4444
104.969 100 78.4502
106.088 100 78.4446
107.207 100 78.4413
108.327 100 78.4387
109.447 100 78.4364
110.566 100 78.4354
111.686 100 78.4352
112.807 100 78.4352
113.927 100 78.4354
115.045 100 78.4364
116.165 100 78.4387
117.285 100 78.4413
118.405 100 78.4446
119.523 100 78.4502
120.641 100 78.4444
121.771 100 78.6127
122.849 100 78.404
123.984 100 78.7091
125.116 100 78.7018
126.23 100 78.7024
127.342 100 78.7032
128.454 100 78.7024
129.561 100 78.7023
130.658 100 78.7053
131.768 100 78.7062
132.897 100 78.7024
134.032 100 78.6898
135.166 100 78.6743
136.307 100 78.6487
137.451 100 78.6216
138.59 100 78.6124
139.73 100 78.6379
140.864 100 78.672
141.946 100 78.6886
143.02 100 78.5081
143.921 100 79.045
144.791 100 78.4133
79.5987 100 79.538
80.6696 100 80.1019
81.6475 100 79.5775
82.7125 100 79.7601
83.8449 100 79.7168
84.9661 100 79.7293
86.0743 100 79.7488
87.172 100 79.7658
88.2602 100 79.7825
89.3477 100 79.7947
90.4335 100 79.7986
91.5166 100 79.8012
92.615 100 79.7997
93.7123 100 79.7978
94.8024 100 79.7967
95.9156 100 79.7978
97.044 100 79.7991
98.1752 100 79.799
99.3085 100 79.7988
100.456 100 79.8125
101.517 100 79.3596
102.66 100 79.5674
103.801 100 79.5301
104.933 100 79.5336
106.06 100 79.5315
107.185 100 79.5287
108.309 100 79.5231
109.432 100 79.5161
110.557 100 79.5106
111.683 100 79.5077
112.81 100 79.5077
113.935 100 79.5106
115.06 100 79.5161
116.184 100 79.5231
117.308 100 79.5287
118.433 100 79.5315
119.56 100 79.5336
120.692 100 79.5301
121.832 100 79.5674
122.975 100 79.3596
124.036 100 79.8125
125.184 100 79.7988
126.317 100 79.799
127.448 100 79.7991
128.577 100 79.7978
129.69 100 79.7967
130.78 100 79.7978
131.877 100 79.7997
132.976 100 79.8012
134.059 100 79.7986
135.145 100 79.7947
136.232 100 79.7825
137.32 100 79.7658
138.418 100 79.7488
139.526 100 79.7293
140.648 100 79.7168
141.78 100 79.7601
142.845 100 79.5775
143.823 100 80.1019
144.894 100 79.538
79.7138 100 80.603
80.6784 100 81.1879
81.6468 100 80.6446
82.6802 100 80.882
83.8239 100 80.845
84.955 100 80.8579
86.0745 100 80.8705
87.1847 100 80.8782
88.29 100 80.8855
89.398 100 80.8897
90.4988 100 80.8883
91.6008 100 80.8885
92.7106 100 80.8873
93.8109 100 80.8868
94.9023 100 80.8865
96.0104 100 80.8874
97.1267 100 80.8886
98.2443 100 80.8884
99.3691 100 80.8877
100.525 100 80.9082
101.639 100 80.3332
102.72 100 80.6609
103.842 100 80.5998
104.965 100 80.6032
106.084 100 80.5724
107.203 100 80.5301
108.323 100 80.485
109.445 100 80.4543
110.566 100 80.4375
111.686 100 80.4291
112.806 100 80.4291
113.926 100 80.4375
115.048 100 80.4543
116.169 100 80.485
117.29 100 80.5301
118.409 100 80.5724
119.527 100 80.6032
120.65 100 80.5998
121.773 100 80.6609
122.854 100 80.3332
123.968 100 80.9082
125.123 100 80.8877
126.248 100 80.8884
127.366 100 80.8886
128.482 100 80.8874
129.59 100 80.8865
130.681 100 80.8868
131.782 100 80.8873
132.892 100 80.8885
133.994 100 80.8883
135.094 100 80.8897
136.202 100 80.8855
137.308 100 80.8782
138.418 100 80.8705
139.537 100 80.8579
140.669 100 80.845
141.812 100 80.882
142.846 100 80.6446
143.814 100 81.1879
144.779 100 80.603
79.6352 100 81.6928
80.6374 100 82.2562
81.5986 100 81.7474
82.6878 100 81.9775
83.8296 100 81.9432
84.951 100 81.952
86.0614 100 81.959
87.1638 100 81.9616
88.2608 100 81.9646
89.3611 100 81.9657
90.4557 100 81.9635
91.5511 100 81.9636
92.6559 100 81.9631
93.753 100 81.9632
94.8417 100 81.9628
95.9506 100 81.9636
97.073 100 81.9646
98.1999 100 81.964
99.3372 100 81.9627
100.511 100 81.9939
101.527 100 81.425
102.662 100 81.7505
103.807 100 81.5331
104.943 100 81.5354
106.07 100 81.5038
107.194 100 81.4845
108.317 100 81.473
109.44 100 81.4662
110.562 100 81.4623
111.685 100 81.4587
112.808 100 81.4587
113.93 100 81.4623
115.053 100 81.4662
116.175 100 81.473
117.299 100 81.4845
118.423 100 81.5038
119.55 100 81.5354
120.686 100 81.5331
121.83 100 81.7505
122.965 100 81.425
123.981 100 81.9939
125.155 100 81.9627
126.292 100 81.964
127.419 100 81.9646
128.542 100 81.9636
129.651 100 81.9628
130.739 100 81.9632
131.836 100 81.9631
132.941 100 81.9636
134.037 100 81.9635
135.131 100 81.9657
136.232 100 81.9646
137.329 100 81.9616
138.431 100 81.959
139.541 100 81.952
140.663 100 81.9432
141.805 100 81.9775
142.894 100 81.7474
143.855 100 82.2562
144.857 100 81.6928
79.6184 100 82.7488
80.5857 100 83.2895
81.5905 100 82.8525
82.7137 100 83.0701
83.8454 100 83.0362
84.9604 100 83.0408
86.0679 100 83.0436
87.1698 100 83.0429
88.2685 100 83.0434
89.3719 100 83.0432
90.4696 100 83.0414
91.5696 100 83.0418
92.6785 100 83.0417
93.7774 100 83.0418
94.8695 100 83.0416
95.9796 100 83.0422
97.1008 100 83.0428
98.2258 100 83.0418
99.366 100 83.0394
100.548 100 83.0757
101.571 100 82.5113
102.684 100 82.7276
103.821 100 82.5711
104.953 100 82.5789
106.076 100 82.5728
107.198 100 82.5681
108.319 100 82.5598
109.441 100 82.535
110.564 100 82.5067
111.685 100 82.4661
112.807 100 82.4661
113.929 100 82.5067
115.051 100 82.535
116.173 100 82.5598
117.295 100 82.5681
118.416 100 82.5728
119.539 100 82.5789
120.672 100 82.5711
121.809 100 82.7276
122.921 100 82.5113
123.945 100 83.0757
125.126 100 83.0394
126.267 100 83.0418
127.392 100 83.0428
128.513 100 83.0422
129.623 100 83.0416
130.715 100 83.0418
131.814 100 83.0417
132.923 100 83.0418
134.023 100 83.0414
135.12 100 83.0432
136.224 100 83.0434
137.323 100 83.0429
138.425 100 83.0436
139.532 100 83.0408
140.647 100 83.0362
141.779 100 83.0701
142.902 100 82.8525
143.907 100 83.2895
144.874 100 82.7488
79.6167 100 83.8101
80.5824 100 84.3305
81.6249 100 83.9761
82.7373 100 84.1615
83.8542 100 84.1322
84.9616 100 84.1342
86.0658 100 84.1346
87.1662 100 84.1328
88.2644 100 84.1321
89.3676 100 84.1316
90.465 100 84.1306
91.5644 100 84.131
92.6724 100 84.1307
93.7699 100 84.1308
94.8614 100 84.1306
95.9712 100 84.1311
97.0921 100 84.1311
98.2207 100 84.1297
99.3699 100 84.1258
100.559 100 84.1676
101.543 100 83.583
102.671 100 83.7328
103.808 100 83.6495
104.947 100 83.6614
106.073 100 83.6554
107.197 100 83.6504
108.32 100 83.5776
109.442 100 83.4737
110.564 100 83.4361
111.686 100 83.4081
112.807 100 83.4081
113.928 100 83.4361
115.05 100 83.4737
116.172 100 83.5776
117.295 100 83.6504
118.419 100 83.6554
119.546 100 83.6614
120.685 100 83.6495
121.821 100 83.7328
122.95 100 83.583
123.934 100 84.1676
125.123 100 84.1258
126.272 100 84.1297
127.4 100 84.1311
128.521 100 84.1311
129.631 100 84.1306
130.722 100 84.1308
131.82 100 84.1307
132.928 100 84.131
134.027 100 84.1306
135.125 100 84.1316
136.228 100 84.1321
137.326 100 84.1328
138.427 100 84.1346
139.531 100 84.1342
140.638 100 84.1322
141.755 100 84.1615
142.868 100 83.9761
143.91 100 84.3305
144.876 100 83.8101
79.5604 100 84.9802
80.587 100 85.3383
81.6585 100 85.1162
82.7603 100 85.2339
83.863 100 85.215
84.9631 100 85.2163
86.0644 100 85.2162
87.1642 100 85.2147
88.2633 100 85.2143
89.3674 100 85.2144
90.465 100 85.2141
91.5647 100 85.2146
92.6732 100 85.2145
93.7703 100 85.2146
94.8624 100 85.2145
95.9727 100 85.215
97.0939 100 85.2145
98.2262 100 85.2127
99.3827 100 85.2066
100.565 100 85.2514
101.537 100 84.6522
[...]
POINT_DATA 1600
SCALARS mass double
LOOKUP_TABLE default
1
1
1
1
1
1
1
1
1
1
1
1
1
1
1
1
1
1
1
1
1
1
1
1
1
1
1
1
1
1
1
1
1
1
1
1
1
1
1
1
1
1
1
1
1
1
1
1
1
1
1
1
1
1
1
1
1
1
1
1
1
1
1
1
1
1
1
1
1
1
1
1
1
1
1
1
1
1
1
1
1
1
1
1
1
1
1
1
1
1
1
1
1
1
1
1
1
1
1
1
1
1
1
1
1
1
1
1
1
1
1
1
1
1
1
1
1
1
1
1
1
1
1
1
1
1
1
1
1
1
1
1
1
1
1
1
1
1
1
1
1
1
1
1
1
1
1
1
1
1
1
1
1
1
1
1
1
1
1
1
1
1
1
1
1
1
1
1
1
1
1
1
1
1
1
1
1
1
1
1
1
1
1
1
1
1
1
1
1
1
1
1
1
1
1
1
1
1
1
1
1
1
1
1
1
1
1
1
1
1
1
1
1
1
1
1
1
1
1
1
1
1
1
1
1
1
1
1
1
1
1
1
1
1
1
1
1
1
1
1
1
1
1
1
1
1
1
1
1
1
1
1
1
1
1
1
1
1
1
1
1
1
1
1
1
1
1
1
1
1
1
1
1
1
1
1
1
1
1
1
1
1
1
1
1
1
1
1
1
1
1
1
1
1
1
1
1
1
1
1
1
1
1
1
1
1
1
1
1
1
1
1
1
1
1
1
1
1
1
1
1
1
1
1
1
1
1
1
1
1
1
1
1
1
1
1
1
1
1
1
1
1
1
1
1
1
1
1
1
1
1
1
1
1
1
1
1
1
1
1
1
1
1
1
1
1
1
1
1
1
1
1
1
1
1
1
1
1
1
1
1
1
1
1
1
1
1
1
1
1
1
1
1
1
1
1
1
1
1
1
1
1
1
1
1
1
1
1
1
1
1
1
1
1
1
1
1
1
1
1
1
1
1
1
1
1
1
1
1
1
1
1
1
1
1
1
1
1
1
1
1
1
1
1
1
1
1
1
1
1
1
1
1
1
1
1
1
1
1
1
1
1
1
1
1
1
1
1
1
1
1
1
1
1
1
1
1
1
1
1
1
1
1
1
1
1
1
1
1
1
1
1
1
1
1
1
1
1
1
1
1
1
1
1
1
1
1
1
1
1
1
1
1
1
1
1
1
1
1
1
1
1
1
1
1
1
1
1
1
1
1
1
1
1
1
1
1
1
1
1
1
1
1
1
1
1
1
1
1
1
1
1
1
1
1
1
1
1
1
1
1
1
1
1
1
1
1
1
1
1
1
1
1
1
1
1
1
1
1
1
1
1
1
1
1
1
1
1
1
1
1
1
1
1
1
1
1
1
1
1
1
1
1
1
1
1
1
1
1
1
1
1
1
1
1
1
1
1
1
1
1
1
1
1
1
1
1
1
1
1
1
1
1
1
1
1
1
1
1
1
1
1
1
1
1
1
1
1
1
1
1
1
1
1
1
1
1
1
1
1
1
1
1
1
1
1
1
1
1
1
1
1
1
1
1
1
1
1
1
1
1
1
1
1
1
1
1
1
1
1
1
1
1
1
1
1
1
1
1
1
1
1
1
1
1
1
1
1
1
1
1
1
1
1
1
1
1
1
1
1
1
1
1
1
1
1
1
1
1
1
1
1
1
1
1
1
1
1
1
1
1
1
1
1
1
1
1
1
1
1
1
1
1
1
1
1
1
1
1
1
1
1
1
1
1
1
1
1
1
1
1
1
1
1
1
1
1
1
1
1
1
1
1
1
1
1
1
1
1
1
1
1
1
1
1
1
1
1
1
1
1
1
1
1
1
1
1
1
1
1
1
1
1
1
1
1
1
1
1
1
1
1
1
1
1
1
1
1
1
1
1
1
1
1
1
1
1
1
1
1
1
1
1
1
1
1
1
1
1
1
1
1
1
1
1
1
1
1
1
1
1
1
1
1
1
1
1
1
1
1
1
1
1
1
1
1
1
1
1
1
1
1
1
1
1
1
1
1
1
1
1
1
1
1
1
1
1
1
1
1
1
1
1
1
1
1
1
1
1
1
1
1
1
1
1
1
1
1
1
1
1
1
1
1
1
1
1
1
1
1
1
1
1
1
1
1
1
1
1
1
1
1
1
1
1
1
1
1
1
1
1
1
1
1
1
1
1
1
1
1
1
1
1
1
1
1
1
1
1
1
1
1
1
1
1
1
1
1
1
1
1
1
1
1
1
1
1
1
1
1
1
1
1
1
1
1
1
1
1
1
1
1
1
1
1
1
1
1
1
1
1
1
1
1
1
1
1
1
1
1
1
1
1
1
1
1
1
1
1
1
1
1
1
1
1
1
1
1
1
1
1
1
1
1
1
1
1
1
1
1
1
1
1
1
1
1
1
1
1
1
1
1
1
1
1
1
1
1
1
1
1
1
1
1
1
1
1
1
1
1
1
1
1
1
1
1
1
1
1
1
1
1
1
1
1
1
1
1
1
1
1
1
1
1
1
1
1
1
1
1
1
1
1
1
1
1
1
1
1
1
1
1
1
1
1
1
1
1
1
1
1
1
1
1
1
1
1
1
1
1
1
1
1
1
1
1
1
1
1
1
1
1
1
1
1
1
1
1
1
1
1
1
1
1
1
1
1
1
1
1
1
1
1
1
1
1
1
1
1
1
1
1
1
1
1
1
1
1
1
1
1
1
1
1
1
1
1
1
1
1
1
1
1
1
1
1
1
1
1
1
1
1
1
1
1
1
1
1
1
1
1
1
1
1
1
1
1
1
1
1
1
1
1
1
1
1
1
1
1
1
1
1
1
1
1
1
1
1
1
1
1
1
1
1
1
1
1
1
1
1
1
1
1
1
1
1
1
1
1
1
1
1
1
1
1
1
1
1
1
1
1
1
1
1
1
1
1
1
1
1
1
1
1
1
1
1
1
1
1
1
1
1
1
1
1
1
1
1
1
1
1
1
1
1
1
1
1
1
1
1
1
1
1
1
1
1
1
1
1
1
1
1
1
1
1
1
1
1
1
1
1
1
1
1
1
1
1
1
1
1
1
1
1
1
1
1
1
1
1
1
1
1
1
1
1
1
1
1
1
1
1
1
1
1
1
1
1
1
1
1
1
1
1
1
1
1
1
1
1
1
1
1
1
1
1
1
1
1
1
1
1
1
1
1
1
1
1
1
1
1
1
1
1
1
1
1
1
1
1
1
1
1
1
1
1
1
1
1
1
1
1
1
1
1
1
1
1
1
1
1
1
1
1
1
1
1
1
1
1
1
1
1
1
1
1
1
1
1
1
1
1
1
1
1
1
1
1
1
1
1
1
1
1
1
1
1
1
1
1
1
1
1
1
1
1
1
1
1
1
1
1
1
1
1
1
1
1
1
1
1
1
1
1
1
1
1
1
1
1
1
1
1
1
1
1
1
1
1
1
1
1
1
1
1
1
1
1
1
1
1
1
1
1
1
1
1
1
1
1
1
1
1
1
1
1
1
1
1
1
1
1
1
1
1
1
1
1
1
1
1
1
1
1
1
1
1
1
1
1
1
1
1
1
1
1
1
1
1
1
1
1
1
1
1
1
1
1
1
1
1
1
1
1
1
1
1
1
1
1
1
VECTORS force double
8.43155 0 8.4978
8.4831 0 -2.04689
-12.3877 0 -3.13038
-8.40408 0 -1.28629
27.6727 0 -8.51579
-21.302 0 16.658
16.5912 0 14.8285
31.5372 0 -1.91766
25.1311 0 -28.7592
7.72833 0 -3.67977
-5.88134 0 11.6176
-8.20188 0 9.41342
-7.12786 0 4.63093
-3.87385 0 1.83307
-1.30409 0 1.19763
-0.418278 0 1.26125
0.192347 0 0.869947
0.920974 0 0.473163
1.45958 0 0.190826
10.193 0 2.85249
2.00888 0 -76.4929
-4.51229 0 2.42592
2.42251 0 -94.7379
1.35605 0 -69.9729
1.51029 0 -96.9329
1.22572 0 -125.174
0.823679 0 -156.967
0.45752 0 -183.163
0.190937 0 -195.107
0.0504011 0 -199.933
-0.0504011 0 -199.933
-0.190937 0 -195.107
-0.45752 0 -183.163
-0.823679 0 -156.967
-1.22572 0 -125.174
-1.51029 0 -96.9329
-1.35605 0 -69.9729
-2.42251 0 -94.7379
4.51229 0 2.42592
-2.00888 0 -76.4929
-10.193 0 2.85249
-1.45958 0 0.190826
-0.920974 0 0.473163
-0.192347 0 0.869947
0.418278 0 1.26125
1.30409 0 1.19763
3.87385 0 1.83307
7.12786 0 4.63093
8.20188 0 9.41342
5.88134 0 11.6176
-7.72833 0 -3.67977
-25.1311 0 -28.7592
-31.5372 0 -1.91766
-16.5912 0 14.8285
21.302 0 16.658
-27.6727 0 -8.51579
8.40408 0 -1.28629
12.3877 0 -3.13038
-8.4831 0 -2.04689
-8.43155 0 8.4978
-2.02109 0 8.72294
-7.38595 0 -7.39535
8.6009 0 1.9716
-1.13495 0 5.65801
-26.1967 0 -37.494
-13.8175 0 -48.4769
0.423152 0 -8.44589
-26.643 0 39.7396
-23.1293 0 17.8964
-15.5249 0 -0.191856
10.6451 0 -2.54907
0.59271 0 -2.38648
18.1676 0 -1.5574
15.5159 0 -0.267073
7.07285 0 0.0250901
24.3085 0 0.875677
0.0250629 0 0.709567
-2.8439 0 0.352808
-1.75193 0 -0.0599517
1.49123 0 3.26717
-0.640308 0 68.8761
-11.8749 0 -88.0113
-16.4234 0 -252.782
-14.7664 0 -327.858
-9.92286 0 -237.397
-6.54916 0 -157.475
-4.20581 0 -80.8212
-2.42279 0 -25.9806
-1.10776 0 -3.42392
-0.298718 0 5.70189
0.298718 0 5.70189
1.10776 0 -3.42392
2.42279 0 -25.9806
4.20581 0 -80.8212
6.54916 0 -157.475
9.92286 0 -237.397
14.7664 0 -327.858
16.4234 0 -252.782
11.8749 0 -88.0113
0.640308 0 68.8761
-1.49123 0 3.26717
1.75193 0 -0.0599517
2.8439 0 0.352808
-0.0250629 0 0.709567
-24.3085 0 0.875677
-7.07285 0 0.0250901
-15.5159 0 -0.267073
-18.1676 0 -1.5574
-0.59271 0 -2.38648
-10.6451 0 -2.54907
15.5249 0 -0.191856
23.1293 0 17.8964
26.643 0 39.7396
-0.423152 0 -8.44589
13.8175 0 -48.4769
26.1967 0 -37.494
1.13495 0 5.65801
-8.6009 0 1.9716
7.38595 0 -7.39535
2.02109 0 8.72294
-4.45532 0 -13.9534
0.901842 0 -6.2841
-1.1525 0 -2.84319
-18.5275 0 -12.4499
14.347 0 -13.6968
4.58516 0 42.4034
4.32217 0 49.4746
-1.7626 0 8.16916
-5.68111 0 -6.71942
-6.23862 0 -8.31818
-3.6789 0 -6.9259
-2.59601 0 -4.48396
-4.37418 0 -1.6508
-1.40375 0 0.203761
8.11071 0 1.32454
6.25786 0 -0.172584
4.68055 0 -0.429937
4.67866 0 -0.500006
7.8465 0 -0.797015
13.5732 0 2.46786
18.8952 0 -224.559
34.7703 0 -156.002
9.795 0 339.576
15.278 0 391.47
9.90962 0 329.156
6.41743 0 277.827
4.07029 0 231.38
2.3489 0 200.015
1.75885 0 186.689
0.550153 0 180.67
-0.550153 0 180.67
-1.75885 0 186.689
-2.3489 0 200.015
-4.07029 0 231.38
-6.41743 0 277.827
-9.90962 0 329.156
-15.278 0 391.47
-9.795 0 339.576
-34.7703 0 -156.002
-18.8952 0 -224.559
-13.5732 0 2.46786
-7.8465 0 -0.797015
-4.67866 0 -0.500006
-4.68055 0 -0.429937
-6.25786 0 -0.172584
-8.11071 0 1.32454
1.40375 0 0.203761
4.37418 0 -1.6508
2.59601 0 -4.48396
3.6789 0 -6.9259
6.23862 0 -8.31818
5.68111 0 -6.71942
1.7626 0 8.16916
-4.32217 0 49.4746
-4.58516 0 42.4034
-14.347 0 -13.6968
18.5275 0 -12.4499
1.1525 0 -2.84319
-0.901842 0 -6.2841
4.45532 0 -13.9534
-1.06789 0 -14.4457
6.0614 0 3.55156
-12.2337 0 -27.0454
22.4064 0 19.8124
5.62287 0 24.4162
-0.813417 0 3.78908
-2.83358 0 -6.74536
-3.59964 0 -9.07346
0.212322 0 -8.79997
-1.59584 0 -7.67504
-3.6854 0 -6.03584
3.43119 0 -3.94908
-5.73205 0 -2.77528
-9.08707 0 -2.48189
3.58279 0 -3.45335
-1.22156 0 -3.89321
-4.24839 0 -3.84953
-3.75673 0 -4.00284
-0.91861 0 -4.47366
4.4299 0 -0.906338
-52.3877 0 56.0999
-27.6174 0 254.689
-7.24483 0 -12.0513
-3.37445 0 -8.33921
-2.45793 0 -36.4401
-2.5498 0 -100.926
-3.81421 0 -221.823
-4.70652 0 -340.84
-4.19054 0 -415.47
-1.62818 0 -456.852
1.62818 0 -456.852
4.19054 0 -415.47
4.70652 0 -340.84
3.81421 0 -221.823
2.5498 0 -100.926
2.45793 0 -36.4401
3.37445 0 -8.33921
7.24483 0 -12.0513
27.6174 0 254.689
52.3877 0 56.0999
-4.4299 0 -0.906338
0.91861 0 -4.47366
3.75673 0 -4.00284
4.24839 0 -3.84953
1.22156 0 -3.89321
-3.58279 0 -3.45335
9.08707 0 -2.48189
5.73205 0 -2.77528
-3.43119 0 -3.94908
3.6854 0 -6.03584
1.59584 0 -7.67504
-0.212322 0 -8.79997
3.59964 0 -9.07346
2.83358 0 -6.74536
0.813417 0 3.78908
-5.62287 0 24.4162
-22.4064 0 19.8124
12.2337 0 -27.0454
-6.0614 0 3.55156
1.06789 0 -14.4457
-8.30089 0 21.5926
-26.0182 0 -16.5571
-20.4355 0 8.18611
32.3259 0 1.41004
-3.10055 0 -10.2436
-2.56684 0 -11.7164
-2.00682 0 -12.2828
-0.372999 0 -12.3527
3.03094 0 -11.4938
0.097233 0 -10.2385
4.07737 0 -8.74252
7.20204 0 -8.09184
1.10947 0 -8.15715
0.963652 0 -8.49723
11.7231 0 -8.7541
7.43134 0 -8.56067
4.6431 0 -8.33734
5.50999 0 -8.41869
8.8665 0 -9.06543
1.86755 0 -10.6454
13.1699 0 155.15
1.76755 0 2.88334
19.2455 0 -363.95
11.2392 0 -371.786
9.42682 0 -352.883
6.11722 0 -156.402
5.37152 0 89.0344
5.59225 0 264.939
4.55081 0 364.096
1.90958 0 414.373
-1.90958 0 414.373
-4.55081 0 364.096
-5.59225 0 264.939
-5.37152 0 89.0344
-6.11722 0 -156.402
-9.42682 0 -352.883
-11.2392 0 -371.786
-19.2455 0 -363.95
-1.76755 0 2.88334
-13.1699 0 155.15
-1.86755 0 -10.6454
-8.8665 0 -9.06543
-5.50999 0 -8.41869
-4.6431 0 -8.33734
-7.43134 0 -8.56067
-11.7231 0 -8.7541
-0.963652 0 -8.49723
-1.10947 0 -8.15715
-7.20204 0 -8.09184
-4.07737 0 -8.74252
-0.097233 0 -10.2385
-3.03094 0 -11.4938
0.372999 0 -12.3527
2.00682 0 -12.2828
2.56684 0 -11.7164
3.10055 0 -10.2436
-32.3259 0 1.41004
20.4355 0 8.18611
26.0182 0 -16.5571
8.30089 0 21.5926
14.913 0 -24.7206
-16.3806 0 -29.2578
32.3298 0 -0.214615
4.13876 0 2.97741
-4.84814 0 -2.32046
-3.15082 0 -2.15693
-3.24971 0 -1.73404
-2.93412 0 -1.08113
0.301233 0 -0.190447
-4.11467 0 0.696074
-1.7604 0 1.11671
1.27691 0 1.31084
-5.86222 0 0.90691
-7.0527 0 0.522194
5.06242 0 0.462725
0.714947 0 0.509131
-2.03352 0 0.561739
-0.574847 0 0.620976
2.69125 0 0.30055
1.04851 0 -0.800027
6.44608 0 -2.19794
-7.55656 0 -167.133
-20.7939 0 331.577
-13.1661 0 348.656
-8.51898 0 378.12
-4.34527 0 254.949
-1.9825 0 133.61
-0.673191 0 68.3602
0.160172 0 25.2527
0.205957 0 -37.6962
-0.205957 0 -37.6962
-0.160172 0 25.2527
0.673191 0 68.3602
1.9825 0 133.61
4.34527 0 254.949
8.51898 0 378.12
13.1661 0 348.656
20.7939 0 331.577
7.55656 0 -167.133
-6.44608 0 -2.19794
-1.04851 0 -0.800027
-2.69125 0 0.30055
0.574847 0 0.620976
2.03352 0 0.561739
-0.714947 0 0.509131
-5.06242 0 0.462725
7.0527 0 0.522194
5.86222 0 0.90691
-1.27691 0 1.31084
1.7604 0 1.11671
4.11467 0 0.696074
-0.301233 0 -0.190447
2.93412 0 -1.08113
3.24971 0 -1.73404
3.15082 0 -2.15693
4.84814 0 -2.32046
-4.13876 0 2.97741
-32.3298 0 -0.214615
16.3806 0 -29.2578
-14.913 0 -24.7206
0.827512 0 1.14278
10.1408 0 15.8226
18.9389 0 -0.434037
-4.23736 0 2.26108
-4.16716 0 1.33478
-1.89377 0 2.59822
-1.67641 0 3.51669
-0.883878 0 4.54065
2.3749 0 5.38874
-1.82701 0 6.10072
1.58374 0 6.02991
4.18249 0 5.8412
-2.87637 0 5.56704
-1.92763 0 5.49958
8.36115 0 5.37547
4.57184 0 5.47134
2.11828 0 5.41316
4.34685 0 5.3592
6.2462 0 4.8095
-7.13106 0 0.577983
-2.64508 0 -12.8371
8.04286 0 78.0118
-3.75558 0 33.3708
-1.59352 0 31.1115
-0.288356 0 8.05049
1.02752 0 -0.584192
2.32875 0 -68.9779
1.89949 0 -331.869
0.849199 0 -371.943
0.103409 0 -234.677
-0.103409 0 -234.677
-0.849199 0 -371.943
-1.89949 0 -331.869
-2.32875 0 -68.9779
-1.02752 0 -0.584192
0.288356 0 8.05049
1.59352 0 31.1115
3.75558 0 33.3708
-8.04286 0 78.0118
2.64508 0 -12.8371
7.13106 0 0.577983
-6.2462 0 4.8095
-4.34685 0 5.3592
-2.11828 0 5.41316
-4.57184 0 5.47134
-8.36115 0 5.37547
1.92763 0 5.49958
2.87637 0 5.56704
-4.18249 0 5.8412
-1.58374 0 6.02991
1.82701 0 6.10072
-2.3749 0 5.38874
0.883878 0 4.54065
1.67641 0 3.51669
1.89377 0 2.59822
4.16716 0 1.33478
4.23736 0 2.26108
-18.9389 0 -0.434037
-10.1408 0 15.8226
-0.827512 0 1.14278
-12.3566 0 39.8174
0.328908 0 -34.4692
3.92878 0 -7.25601
-3.71641 0 -7.56131
-3.23836 0 -6.53958
-1.07972 0 -5.54003
-1.46072 0 -4.85601
-0.952505 0 -4.16537
2.00628 0 -3.54318
-2.55424 0 -3.05763
0.704283 0 -3.00951
3.12928 0 -2.90776
-4.26257 0 -2.82441
-2.98411 0 -2.7375
7.14794 0 -2.76
2.71624 0 -2.73055
1.28653 0 -2.74872
3.30205 0 -2.85373
4.10196 0 -3.57014
-20.387 0 -11.2419
7.46691 0 -1.05536
-2.20691 0 90.2785
-1.90769 0 -7.01182
-2.97585 0 -5.03813
-0.296201 0 -6.53804
2.81559 0 -16.744
2.09741 0 -182.828
-1.05633 0 285.133
-0.510635 0 382.262
-0.370118 0 300.393
0.370118 0 300.393
0.510635 0 382.262
1.05633 0 285.133
-2.09741 0 -182.828
-2.81559 0 -16.744
0.296201 0 -6.53804
2.97585 0 -5.03813
1.90769 0 -7.01182
2.20691 0 90.2785
-7.46691 0 -1.05536
20.387 0 -11.2419
-4.10196 0 -3.57014
-3.30205 0 -2.85373
-1.28653 0 -2.74872
-2.71624 0 -2.73055
-7.14794 0 -2.76
2.98411 0 -2.7375
4.26257 0 -2.82441
-3.12928 0 -2.90776
-0.704283 0 -3.00951
2.55424 0 -3.05763
-2.00628 0 -3.54318
0.952505 0 -4.16537
1.46072 0 -4.85601
1.07972 0 -5.54003
3.23836 0 -6.53958
3.71641 0 -7.56131
-3.92878 0 -7.25601
-0.328908 0 -34.4692
12.3566 0 39.8174
-0.451872 0 -6.83146
3.07739 0 -0.395382
2.08939 0 -7.69119
-1.18218 0 -1.0587
-1.21755 0 -1.99573
0.451755 0 -1.92357
-0.720981 0 -1.73945
-0.403932 0 -1.58202
1.9274 0 -1.50692
-2.65639 0 -1.7818
0.880564 0 -2.0011
3.34248 0 -2.0837
-4.41965 0 -2.02654
-2.18202 0 -2.04161
7.28654 0 -2.1778
3.14158 0 -2.29104
2.31911 0 -2.2238
3.93055 0 -2.31772
3.10283 0 -1.91071
-24.2386 0 -15.3337
17.9331 0 14.3937
-2.07813 0 -25.8114
0.375788 0 -0.217848
-1.83831 0 -0.477932
0.868469 0 -33.5952
3.63311 0 -117.063
-4.11448 0 228.703
-0.989254 0 46.8676
1.29037 0 6.49995
1.29927 0 -263.882
-1.29927 0 -263.882
-1.29037 0 6.49995
0.989254 0 46.8676
4.11448 0 228.703
-3.63311 0 -117.063
-0.868469 0 -33.5952
1.83831 0 -0.477932
-0.375788 0 -0.217848
2.07813 0 -25.8114
-17.9331 0 14.3937
24.2386 0 -15.3337
-3.10283 0 -1.91071
-3.93055 0 -2.31772
-2.31911 0 -2.2238
-3.14158 0 -2.29104
-7.28654 0 -2.1778
2.18202 0 -2.04161
4.41965 0 -2.02654
-3.34248 0 -2.0837
-0.880564 0 -2.0011
2.65639 0 -1.7818
-1.9274 0 -1.50692
0.403932 0 -1.58202
0.720981 0 -1.73945
-0.451755 0 -1.92357
1.21755 0 -1.99573
1.18218 0 -1.0587
-2.08939 0 -7.69119
-3.07739 0 -0.395382
0.451872 0 -6.83146
0.706293 0 -3.70017
1.54279 0 -9.94515
1.30274 0 -3.71542
1.26606 0 4.56962
0.349986 0 3.3259
1.58638 0 3.31793
0.295951 0 3.42509
-0.00836752 0 3.36866
1.92936 0 3.39654
-2.65329 0 3.1424
0.927442 0 2.76188
3.49298 0 2.46931
-4.6873 0 2.23296
-1.85247 0 2.06686
7.18527 0 1.92365
3.33765 0 1.71687
2.94676 0 1.83443
4.06883 0 1.84218
0.915312 0 3.62288
-17.8461 0 -17.5262
21.9826 0 0.617891
3.5438 0 -369.958
0.68238 0 -121.068
-0.391433 0 -151.451
-0.0400647 0 -208.43
-2.78881 0 72.4171
-2.53792 0 15.7166
1.60998 0 -0.232379
4.07691 0 -144.152
-1.50783 0 175.614
1.50783 0 175.614
-4.07691 0 -144.152
-1.60998 0 -0.232379
2.53792 0 15.7166
2.78881 0 72.4171
0.0400647 0 -208.43
0.391433 0 -151.451
-0.68238 0 -121.068
-3.5438 0 -369.958
-21.9826 0 0.617891
17.8461 0 -17.5262
-0.915312 0 3.62288
-4.06883 0 1.84218
-2.94676 0 1.83443
-3.33765 0 1.71687
-7.18527 0 1.92365
1.85247 0 2.06686
4.6873 0 2.23296
-3.49298 0 2.46931
-0.927442 0 2.76188
2.65329 0 3.1424
-1.92936 0 3.39654
0.00836752 0 3.36866
-0.295951 0 3.42509
-1.58638 0 3.31793
-0.349986 0 3.3259
-1.26606 0 4.56962
-1.30274 0 -3.71542
-1.54279 0 -9.94515
-0.706293 0 -3.70017
0.706293 0 3.70017
1.54279 0 9.94515
1.30274 0 3.71542
1.26606 0 -4.56962
0.349986 0 -3.3259
1.58638 0 -3.31793
0.295951 0 -3.4251
-0.00836879 0 -3.36868
1.92937 0 -3.3966
-2.65314 0 -3.14256
0.928251 0 -2.76163
3.49449 0 -2.4676
-4.68962 0 -2.23658
-1.88543 0 -2.05343
7.15772 0 -1.95527
3.75588 0 -2.07369
3.27544 0 -2.29016
3.4815 0 -2.28811
-3.37767 0 -0.182073
-4.36375 0 -36.3413
8.18504 0 -18.5151
3.42788 0 391.634
-0.632914 0 16.9238
-1.95889 0 56.8035
-3.09224 0 230.74
-5.28995 0 54.1028
2.03259 0 6.57411
3.93846 0 -68.4768
-0.0899109 0 53.5131
-2.41205 0 74.0399
2.41205 0 74.0399
0.0899109 0 53.5131
-3.93846 0 -68.4768
-2.03259 0 6.57411
5.28995 0 54.1028
3.09224 0 230.74
1.95889 0 56.8035
0.632914 0 16.9238
-3.42788 0 391.634
-8.18504 0 -18.5151
4.36375 0 -36.3413
3.37767 0 -0.182073
-3.4815 0 -2.28811
-3.27544 0 -2.29016
-3.75588 0 -2.07369
-7.15772 0 -1.95527
1.88543 0 -2.05343
4.68962 0 -2.23658
-3.49449 0 -2.4676
-0.928251 0 -2.76163
2.65314 0 -3.14256
-1.92937 0 -3.3966
0.00836879 0 -3.36868
-0.295951 0 -3.4251
-1.58638 0 -3.31793
-0.349986 0 -3.3259
-1.26606 0 -4.56962
-1.30274 0 3.71542
-1.54279 0 9.94515
-0.706293 0 3.70017
-0.451872 0 6.83146
3.07739 0 0.395382
2.08939 0 7.69119
-1.18218 0 1.0587
-1.21755 0 1.99573
0.451752 0 1.92357
-0.72099 0 1.73944
-0.403958 0 1.58199
1.9273 0 1.50685
-2.65689 0 1.7818
0.878104 0 2.00167
3.3319 0 2.08015
-4.45154 0 2.03019
-2.20536 0 2.03548
7.58952 0 2.03959
4.66706 0 1.96303
3.35419 0 1.88871
2.97695 0 2.69511
-13.3707 0 7.07435
17.0924 0 17.8567
-5.5261 0 17.454
9.35175 0 5.70289
1.27761 0 105.641
-0.486454 0 76.1764
-2.67145 0 -29.8531
-4.6022 0 -138.146
3.51965 0 -13.5379
-0.330449 0 -5.38542
-3.18155 0 94.4162
0.561818 0 -256.036
-0.561818 0 -256.036
3.18155 0 94.4162
0.330449 0 -5.38542
-3.51965 0 -13.5379
4.6022 0 -138.146
2.67145 0 -29.8531
0.486454 0 76.1764
-1.27761 0 105.641
-9.35175 0 5.70289
5.5261 0 17.454
-17.0924 0 17.8567
13.3707 0 7.07435
-2.97695 0 2.69511
-3.35419 0 1.88871
-4.66706 0 1.96303
-7.58952 0 2.03959
2.20536 0 2.03548
4.45154 0 2.03019
-3.3319 0 2.08015
-0.878104 0 2.00167
2.65689 0 1.7818
-1.9273 0 1.50685
0.403958 0 1.58199
0.72099 0 1.73944
-0.451752 0 1.92357
1.21755 0 1.99573
1.18218 0 1.0587
-2.08939 0 7.69119
-3.07739 0 0.395382
0.451872 0 6.83146
-12.3566 0 -39.8174
0.328908 0 34.4692
3.92878 0 7.25601
-3.71641 0 7.56131
-3.23834 0 6.53958
-1.07967 0 5.54002
-1.46057 0 4.85599
-0.952214 0 4.16533
2.00664 0 3.54312
-2.55281 0 3.05795
0.709147 0 3.00741
3.12796 0 2.89656
-4.2849 0 2.80839
-2.89809 0 2.70545
8.0152 0 2.53677
5.09392 0 2.65139
3.17382 0 3.23646
0.456987 0 5.36363
-21.3546 0 11.3337
22.5817 0 8.50959
-21.4211 0 -6.51464
20.1268 0 -48.4844
6.46571 0 -6.77945
14.3583 0 -67.4592
29.5821 0 -171.459
14.8564 0 25.2926
15.5307 0 -177.892
-0.742519 0 82.9105
14.3097 0 -234.647
-0.944112 0 234.702
0.944112 0 234.702
-14.3097 0 -234.647
0.742519 0 82.9105
-15.5307 0 -177.892
-14.8564 0 25.2926
-29.5821 0 -171.459
-14.3583 0 -67.4592
-6.46571 0 -6.77945
-20.1268 0 -48.4844
21.4211 0 -6.51464
-22.5817 0 8.50959
21.3546 0 11.3337
-0.456987 0 5.36363
-3.17382 0 3.23646
-5.09392 0 2.65139
-8.0152 0 2.53677
2.89809 0 2.70545
4.2849 0 2.80839
-3.12796 0 2.89656
-0.709147 0 3.00741
2.55281 0 3.05795
-2.00664 0 3.54312
0.952214 0 4.16533
1.46057 0 4.85599
1.07967 0 5.54002
3.23834 0 6.53958
3.71641 0 7.56131
-3.92878 0 7.25601
-0.328908 0 34.4692
12.3566 0 -39.8174
0.827512 0 -1.14278
10.1408 0 -15.8226
18.9389 0 0.434037
-4.23737 0 -2.26108
-4.16728 0 -1.3348
-1.89424 0 -2.59827
-1.67773 0 -3.51684
-0.886683 0 -4.54088
2.37084 0 -5.38969
-1.83582 0 -6.10126
1.55145 0 -6.04463
4.08142 0 -5.87161
-3.06052 0 -5.64692
-1.80739 0 -5.58055
9.59694 0 -5.51613
6.56042 0 -4.82925
3.99527 0 -2.44092
0.136107 0 1.64408
-4.18663 0 2.90123
29.6694 0 -6.78111
-50.3221 0 -70.6528
-11.4428 0 28.1241
-56.1161 0 -181.323
-29.2545 0 91.0192
-50.9338 0 207.641
-71.8026 0 25.8319
-29.0454 0 141.6
-33.0753 0 -129.718
-22.2745 0 212.961
-3.63541 0 45.5837
3.63541 0 45.5837
22.2745 0 212.961
33.0753 0 -129.718
29.0454 0 141.6
71.8026 0 25.8319
50.9338 0 207.641
29.2545 0 91.0192
56.1161 0 -181.323
11.4428 0 28.1241
50.3221 0 -70.6528
-29.6694 0 -6.78111
4.18663 0 2.90123
-0.136107 0 1.64408
-3.99527 0 -2.44092
-6.56042 0 -4.82925
-9.59694 0 -5.51613
1.80739 0 -5.58055
3.06052 0 -5.64692
-4.08142 0 -5.87161
-1.55145 0 -6.04463
1.83582 0 -6.10126
-2.37084 0 -5.38969
0.886683 0 -4.54088
1.67773 0 -3.51684
1.89424 0 -2.59827
4.16728 0 -1.3348
4.23737 0 -2.26108
-18.9389 0 0.434037
-10.1408 0 -15.8226
-0.827512 0 -1.14278
14.913 0 24.7206
-16.3806 0 29.2578
32.3298 0 0.214614
4.13882 0 -2.97741
-4.84766 0 2.32044
-3.14853 0 2.15694
-3.24271 0 1.73408
-2.91955 0 1.08095
0.319957 0 0.187509
-4.06433 0 -0.695225
-1.65689 0 -1.14855
1.50464 0 -1.30047
-5.5212 0 -1.02618
-5.68164 0 -0.491238
7.38282 0 0.544406
3.01198 0 3.7114
-4.07859 0 8.06371
-176.141 0 5.40488
24.1184 0 -88.7666
49.8783 0 2.16206
-17.4604 0 3.21153
-156.021 0 -164.975
25.4094 0 31.3269
-200.29 0 -297.59
-54.7469 0 -86.4684
-24.5141 0 94.6249
77.1921 0 -19.3534
130.576 0 -7.43446
-52.1003 0 46.4094
26.1483 0 -6.90009
-26.1483 0 -6.90009
52.1003 0 46.4094
-130.576 0 -7.43446
-77.1921 0 -19.3534