# vtk DataFile Version 3.0
SiWiRVisFile
ASCII
DATASET UNSTRUCTURED_GRID
POINTS 1600 DOUBLE
76.4856 100 72.6456
76.5405 100 73.8196
77.5842 100 74.1402
79.6176 100 73.8935
80.7115 100 74.182
81.7278 100 74.7459
83.6661 100 74.5655
84.8215 100 74.9326
85.8605 100 75.5854
84.5068 100 73.8122
91.6978 100 72.6904
90.9764 100 71.4146
90.7204 100 73.3688
89.8884 100 70.9432
88.1034 100 70.4154
90.899 100 62.7969
91.9696 100 62.9337
93.7375 100 61.5081
90.7701 100 57.3663
96.1997 100 60.4189
103.698 100 43.5909
106.022 100 44.5853
106.141 100 43.5098
107.07 100 44.1305
105.159 100 42.925
110.168 100 43.9457
110.495 100 37.9306
111.55 100 37.3043
110.723 100 39.0965
111.834 100 38.9222
112.912 100 38.7535
113.998 100 39.1928
112.71 100 37.3307
113.604 100 37.9312
114.421 100 44.0249
119.329 100 42.9366
117.412 100 44.1146
118.355 100 43.5113
118.461 100 44.583
120.789 100 43.5818
129.037 100 59.8765
133.722 100 57.3663
130.511 100 61.2857
132.457 100 63.4459
133.506 100 62.9458
135.989 100 70.6135
134.8 100 70.6591
134.194 100 72.9686
133.152 100 71.2727
133.156 100 72.7284
139.995 100 73.8406
138.656 100 75.6427
139.696 100 74.8996
140.846 100 74.5916
142.75 100 74.7467
143.767 100 74.1712
144.87 100 73.9188
146.907 100 74.1391
147.955 100 73.819
148.007 100 72.6427
75.6601 100 74.5268
76.7476 100 74.8848
78.693 100 74.508
79.7305 100 74.9733
80.8561 100 75.374
82.824 100 75.279
83.8024 100 75.6855
84.7626 100 76.2246
85.8782 100 76.6613
86.8998 100 76.6502
88.0072 100 76.3098
92.0191 100 70.5163
90.1193 100 72.0024
91.1243 100 67.9311
92.3647 100 65.0958
90.8306 100 70.2293
93.0853 100 62.8684
95.3715 100 61.039
96.317 100 61.4581
98.0725 100 61.0876
104.933 100 44.035
98.0246 100 50.1985
106.192 100 52.2622
110.716 100 42.0719
107.786 100 43.0379
109.156 100 44.619
109.918 100 42.8009
109.614 100 41.6803
107.943 100 37.1457
111.593 100 40.1036
113.03 100 39.9725
116.636 100 37.1749
114.672 100 41.4353
114.399 100 42.9253
115.382 100 44.6914
116.687 100 43.0453
113.711 100 42.0652
118.515 100 51.5407
126.468 100 50.1985
119.557 100 44.0432
126.242 100 60.9331
128.389 100 61.3694
129.366 100 60.8752
131.766 100 62.544
133.619 100 70.0813
132.201 100 65.0354
133.133 100 67.984
134.282 100 71.8047
132.132 100 70.8904
136.42 100 76.7004
137.574 100 76.4418
138.671 100 76.6882
139.71 100 76.3195
140.661 100 75.7243
141.658 100 75.3136
143.626 100 75.3452
144.72 100 74.9867
145.799 100 74.5122
147.746 100 74.8872
148.834 100 74.5232
75.8324 100 75.6294
76.8789 100 75.9954
77.7595 100 75.324
78.8327 100 75.6786
79.8841 100 76.0716
81.8919 100 75.8489
82.8651 100 76.3586
83.8792 100 76.8814
84.8763 100 77.4029
86.1677 100 77.7138
87.3212 100 77.7107
88.5206 100 78.2013
89.9934 100 76.5066
91.6845 100 69.4483
92.2761 100 67.4395
93.3873 100 66.037
93.1554 100 63.9586
94.0463 100 63.1844
95.2163 100 62.0756
97.2185 100 60.3763
98.2249 100 59.9529
104.325 100 53.5441
105.34 100 52.998
106.504 100 53.5459
102.989 100 49.744
107.326 100 52.0874
106.505 100 51.208
105.493 100 51.2834
110.319 100 40.2992
111.259 100 41.0941
113.493 100 41.038
114.252 100 40.2748
119.701 100 50.3589
117.013 100 51.1255
117.441 100 52.3308
120.836 100 50.7669
117.472 100 53.4976
118.64 100 53.0657
120.88 100 53.8057
125.592 100 59.932
127.289 100 60.7331
129.289 100 61.9455
130.175 100 62.7772
131.216 100 63.9109
131.579 100 65.9734
131.948 100 67.3899
133.1 100 69.1331
133.815 100 76.7717
135.918 100 77.8843
137.056 100 77.5393
138.103 100 77.6649
139.687 100 77.4621
140.6 100 76.8391
141.603 100 76.3755
142.643 100 75.8901
144.519 100 76.0849
145.64 100 75.6764
146.717 100 75.3239
147.612 100 75.9905
148.661 100 75.6212
76.0499 100 76.6831
77.2452 100 77.0589
78.0694 100 76.4176
79.1022 100 76.86
80.9121 100 76.6831
82.0049 100 77.0689
82.9796 100 77.4238
83.9518 100 78.076
85.2456 100 78.4063
86.5828 100 78.7028
87.8358 100 79.3541
89.7669 100 78.1101
88.9128 100 77.1181
92.8725 100 69.4501
92.08 100 68.5068
93.4298 100 67.1803
94.9749 100 65.4126
93.4883 100 64.8903
94.4361 100 64.3436
95.4024 100 63.3033
96.2271 100 62.4766
99.1965 100 60.7909
104.647 100 52.0821
105.578 100 57.0776
105.298 100 54.0263
106.062 100 54.9696
108.784 100 54.3215
110.013 100 54.3364
108.033 100 51.2419
111.369 100 43.0668
113.095 100 43.0573
116.311 100 52.1092
115.088 100 53.111
115.716 100 54.2038
118.395 100 54.3984
119.515 100 54.2339
119.689 100 55.4962
119.846 100 53.1783
125.088 100 60.9213
127.962 100 62.8156
128.941 100 63.287
130.04 100 63.9052
131.029 100 65.035
130.361 100 66.0302
130.856 100 67.0767
132.103 100 68.5045
132.086 100 69.6584
135.246 100 76.9126
135.212 100 78.669
136.652 100 78.7535
137.728 100 78.6563
139.044 100 78.4433
140.373 100 78.3725
141.43 100 77.5033
142.509 100 77.1112
143.598 100 76.7632
145.372 100 76.8269
146.422 100 76.3989
147.248 100 77.0374
148.459 100 76.6592
76.2825 100 77.7364
77.1742 100 78.2395
78.2329 100 77.6138
80.0464 100 77.3082
81.0651 100 77.8358
82.2227 100 78.196
83.3688 100 79.0566
84.4355 100 79.1984
85.7492 100 79.5791
86.8048 100 79.7243
87.2668 100 80.6769
90.029 100 79.1613
90.8089 100 77.1768
94.4327 100 67.8551
93.239 100 68.374
95.5212 100 66.4129
96.35 100 65.6408
95.6203 100 64.4804
96.4302 100 63.6396
97.5766 100 63.0235
97.27 100 61.8904
103.167 100 60.4823
105.433 100 55.786
107.027 100 55.3624
107.534 100 54.0581
108.207 100 55.2496
109.422 100 55.28
110.355 100 56.0085
108.354 100 53.2627
111.359 100 45.1913
113.103 100 45.1359
116.241 100 53.2639
113.895 100 55.7804
114.903 100 54.9463
116.072 100 55.2604
116.807 100 54.4256
117.21 100 55.3889
117.791 100 56.3198
121.306 100 60.4007
127.115 100 61.9618
126.722 100 62.958
127.417 100 63.9146
128.998 100 64.3049
129.83 100 65.0661
128.618 100 66.4917
131.09 100 69.0257
129.977 100 68.0957
134.286 100 78.071
134.079 100 79.2907
137.288 100 80.7639
137.553 100 79.7426
138.658 100 79.5382
139.71 100 79.3293
141.377 100 78.8615
142.263 100 78.1937
143.436 100 77.8839
144.468 100 77.3582
146.272 100 77.5697
147.303 100 78.2146
148.191 100 77.7201
75.9356 100 78.7363
76.9637 100 79.4655
78.1938 100 78.8872
79.1714 100 78.174
80.1515 100 78.5073
81.0811 100 78.9714
82.2094 100 79.3714
82.9922 100 80.0849
84.0403 100 80.2687
85.0551 100 80.4734
86.1321 100 80.6216
88.9814 100 79.3232
90.8812 100 80.2821
89.7383 100 75.4
91.4071 100 74.9362
94.3682 100 66.5832
96.5705 100 66.6464
97.6484 100 66.0555
97.378 100 64.9302
98.5092 100 64.0501
98.4606 100 62.1067
101.057 100 61.802
103.506 100 58.7079
104.785 100 58.6556
106.532 100 56.3277
107.769 100 56.2443
108.353 100 57.2891
108.947 100 56.4719
111.46 100 56.0383
111.188 100 53.967
114.194 100 53.6966
112.85 100 56.1253
115.077 100 56.3363
115.749 100 57.1941
116.689 100 56.544
119.038 100 56.7318
119.59 100 57.6287
120.411 100 59.1046
123.617 100 61.7372
125.829 100 62.1368
126.065 100 63.8783
128.218 100 65.2881
127.233 100 66.0405
127.733 100 67.2215
129.665 100 66.903
132.876 100 74.8178
134.681 100 74.6367
133.432 100 80.115
135.935 100 79.5543
138.356 100 80.6253
139.397 100 80.5404
140.395 100 80.3684
141.388 100 80.0113
142.362 100 79.6006
143.435 100 78.9862
144.372 100 78.4951
145.337 100 78.1349
146.294 100 78.8868
147.543 100 79.4512
148.549 100 78.7339
74.9908 100 79.3665
75.9865 100 79.8867
78.2838 100 80.0335
79.3489 100 79.2878
80.3313 100 79.7391
80.3156 100 81.68
82.1579 100 80.711
83.315 100 81.1371
84.4449 100 81.5615
85.6072 100 81.5431
86.5992 100 81.5636
89.8223 100 80.2277
91.4001 100 81.1766
90.8846 100 75.8975
95.3137 100 68.6339
95.4499 100 67.4255
97.4233 100 68.2854
98.859 100 66.5294
98.5474 100 65.1923
99.0658 100 63.0172
99.5551 100 61.8363
102.148 100 61.1591
104.238 100 60.0025
107.182 100 57.3064
109.235 100 58.0812
109.694 100 57.1959
109.331 100 60.2746
110.953 100 57.1056
108.751 100 61.2022
109.606 100 62.3457
114.889 100 61.25
115.733 100 60.536
114.136 100 56.9946
114.624 100 60.2272
114.853 100 57.908
115.984 100 58.2459
117.372 100 57.3885
120.082 100 60.369
122.324 100 61.1613
124.743 100 61.9053
125.1 100 62.9876
126.525 100 65.049
126.135 100 66.0331
127.157 100 68.2911
128.893 100 67.6058
129.163 100 68.8619
133.906 100 75.62
132.023 100 81.6101
134.91 100 80.1171
137.956 100 81.6643
139.05 100 81.5885
140.091 100 81.523
141.24 100 81.1455
142.2 100 80.7071
144.349 100 81.0883
144.237 100 79.7445
145.214 100 79.2609
146.253 100 79.98
148.494 100 79.8687
149.498 100 79.359
75.0687 100 80.5899
76.1549 100 81.0232
77.3507 100 80.6487
78.3285 100 81.0792
79.4156 100 80.4678
79.2619 100 81.6701
81.4365 100 81.5721
82.4357 100 81.8106
83.3346 100 82.3368
85.1034 100 82.5481
86.3292 100 82.796
87.356 100 82.3935
88.5581 100 80.2953
87.9804 100 81.5842
88.4221 100 82.566
92.2206 100 80.3409
96.7145 100 69.3653
97.5261 100 67.0966
100.667 100 65.9567
99.6238 100 65.5828
99.6079 100 64.1944
100.147 100 63.2551
103.826 100 61.3934
106.339 100 58.3186
107.517 100 58.3955
109.081 100 59.1926
108.03 100 59.3504
106.258 100 61.8539
107.639 100 62.3929
109.633 100 63.8438
115.427 100 63.3785
117.943 100 61.94
118.96 100 62.3545
115.859 100 59.4147
114.836 100 59.0972
117.295 100 58.4969
118.414 100 58.0281
120.634 100 61.2729
124.065 100 63.3336
125.004 100 64.1161
124.878 100 65.3502
125.192 100 66.4933
126.675 100 67.2214
128.19 100 68.4934
132.569 100 80.5782
135.727 100 82.4615
136.792 100 81.6951
136.01 100 80.8987
136.795 100 82.8383
137.871 100 82.8619
139.126 100 82.8403
141.131 100 82.2784
142.104 100 81.8244
143.077 100 81.4744
145.266 100 81.6886
145.197 100 80.4874
146.25 100 81.0418
147.303 100 80.6249
148.31 100 81.0089
149.421 100 80.5551
75.0713 100 81.6946
76.5075 100 82.1846
77.4926 100 81.7855
78.4157 100 82.3628
79.3746 100 84.0778
78.1265 100 84.8234
79.6264 100 82.6447
80.9583 100 82.5553
82.3458 100 82.8783
81.4388 100 83.5057
83.4242 100 83.369
85.7006 100 83.7993
86.8347 100 83.8837
88.2323 100 83.7107
89.5754 100 83.0708
91.2613 100 79.2458
97.6348 100 70.3755
97.9171 100 69.2101
99.8966 100 66.6247
100.778 100 67.284
101.334 100 63.7794
[...]
POINT_DATA 1600
SCALARS mass double
LOOKUP_TABLE default
1
1
1
1
1
1
1
1
1
1
1
1
1
1
1
1
1
1
1
1
1
1
1
1
1
1
1
1
1
1
1
1
1
1
1
1
1
1
1
1
1
1
1
1
1
1
1
1
1
1
1
1
1
1
1
1
1
1
1
1
1
1
1
1
1
1
1
1
1
1
1
1
1
1
1
1
1
1
1
1
1
1
1
1
1
1
1
1
1
1
1
1
1
1
1
1
1
1
1
1
1
1
1
1
1
1
1
1
1
1
1
1
1
1
1
1
1
1
1
1
1
1
1
1
1
1
1
1
1
1
1
1
1
1
1
1
1
1
1
1
1
1
1
1
1
1
1
1
1
1
1
1
1
1
1
1
1
1
1
1
1
1
1
1
1
1
1
1
1
1
1
1
1
1
1
1
1
1
1
1
1
1
1
1
1
1
1
1
1
1
1
1
1
1
1
1
1
1
1
1
1
1
1
1
1
1
1
1
1
1
1
1
1
1
1
1
1
1
1
1
1
1
1
1
1
1
1
1
1
1
1
1
1
1
1
1
1
1
1
1
1
1
1
1
1
1
1
1
1
1
1
1
1
1
1
1
1
1
1
1
1
1
1
1
1
1
1
1
1
1
1
1
1
1
1
1
1
1
1
1
1
1
1
1
1
1
1
1
1
1
1
1
1
1
1
1
1
1
1
1
1
1
1
1
1
1
1
1
1
1
1
1
1
1
1
1
1
1
1
1
1
1
1
1
1
1
1
1
1
1
1
1
1
1
1
1
1
1
1
1
1
1
1
1
1
1
1
1
1
1
1
1
1
1
1
1
1
1
1
1
1
1
1
1
1
1
1
1
1
1
1
1
1
1
1
1
1
1
1
1
1
1
1
1
1
1
1
1
1
1
1
1
1
1
1
1
1
1
1
1
1
1
1
1
1
1
1
1
1
1
1
1
1
1
1
1
1
1
1
1
1
1
1
1
1
1
1
1
1
1
1
1
1
1
1
1
1
1
1
1
1
1
1
1
1
1
1
1
1
1
1
1
1
1
1
1
1
1
1
1
1
1
1
1
1
1
1
1
1
1
1
1
1
1
1
1
1
1
1
1
1
1
1
1
1
1
1
1
1
1
1
1
1
1
1
1
1
1
1
1
1
1
1
1
1
1
1
1
1
1
1
1
1
1
1
1
1
1
1
1
1
1
1
1
1
1
1
1
1
1
1
1
1
1
1
1
1
1
1
1
1
1
1
1
1
1
1
1
1
1
1
1
1
1
1
1
1
1
1
1
1
1
1
1
1
1
1
1
1
1
1
1
1
1
1
1
1
1
1
1
1
1
1
1
1
1
1
1
1
1
1
1
1
1
1
1
1
1
1
1
1
1
1
1
1
1
1
1
1
1
1
1
1
1
1
1
1
1
1
1
1
1
1
1
1
1
1
1
1
1
1
1
1
1
1
1
1
1
1
1
1
1
1
1
1
1
1
1
1
1
1
1
1
1
1
1
1
1
1
1
1
1
1
1
1
1
1
1
1
1
1
1
1
1
1
1
1
1
1
1
1
1
1
1
1
1
1
1
1
1
1
1
1
1
1
1
1
1
1
1
1
1
1
1
1
1
1
1
1
1
1
1
1
1
1
1
1
1
1
1
1
1
1
1
1
1
1
1
1
1
1
1
1
1
1
1
1
1
1
1
1
1
1
1
1
1
1
1
1
1
1
1
1
1
1
1
1
1
1
1
1
1
1
1
1
1
1
1
1
1
1
1
1
1
1
1
1
1
1
1
1
1
1
1
1
1
1
1
1
1
1
1
1
1
1
1
1
1
1
1
1
1
1
1
1
1
1
1
1
1
1
1
1
1
1
1
1
1
1
1
1
1
1
1
1
1
1
1
1
1
1
1
1
1
1
1
1
1
1
1
1
1
1
1
1
1
1
1
1
1
1
1
1
1
1
1
1
1
1
1
1
1
1
1
1
1
1
1
1
1
1
1
1
1
1
1
1
1
1
1
1
1
1
1
1
1
1
1
1
1
1
1
1
1
1
1
1
1
1
1
1
1
1
1
1
1
1
1
1
1
1
1
1
1
1
1
1
1
1
1
1
1
1
1
1
1
1
1
1
1
1
1
1
1
1
1
1
1
1
1
1
1
1
1
1
1
1
1
1
1
1
1
1
1
1
1
1
1
1
1
1
1
1
1
1
1
1
1
1
1
1
1
1
1
1
1
1
1
1
1
1
1
1
1
1
1
1
1
1
1
1
1
1
1
1
1
1
1
1
1
1
1
1
1
1
1
1
1
1
1
1
1
1
1
1
1
1
1
1
1
1
1
1
1
1
1
1
1
1
1
1
1
1
1
1
1
1
1
1
1
1
1
1
1
1
1
1
1
1
1
1
1
1
1
1
1
1
1
1
1
1
1
1
1
1
1
1
1
1
1
1
1
1
1
1
1
1
1
1
1
1
1
1
1
1
1
1
1
1
1
1
1
1
1
1
1
1
1
1
1
1
1
1
1
1
1
1
1
1
1
1
1
1
1
1
1
1
1
1
1
1
1
1
1
1
1
1
1
1
1
1
1
1
1
1
1
1
1
1
1
1
1
1
1
1
1
1
1
1
1
1
1
1
1
1
1
1
1
1
1
1
1
1
1
1
1
1
1
1
1
1
1
1
1
1
1
1
1
1
1
1
1
1
1
1
1
1
1
1
1
1
1
1
1
1
1
1
1
1
1
1
1
1
1
1
1
1
1
1
1
1
1
1
1
1
1
1
1
1
1
1
1
1
1
1
1
1
1
1
1
1
1
1
1
1
1
1
1
1
1
1
1
1
1
1
1
1
1
1
1
1
1
1
1
1
1
1
1
1
1
1
1
1
1
1
1
1
1
1
1
1
1
1
1
1
1
1
1
1
1
1
1
1
1
1
1
1
1
1
1
1
1
1
1
1
1
1
1
1
1
1
1
1
1
1
1
1
1
1
1
1
1
1
1
1
1
1
1
1
1
1
1
1
1
1
1
1
1
1
1
1
1
1
1
1
1
1
1
1
1
1
1
1
1
1
1
1
1
1
1
1
1
1
1
1
1
1
1
1
1
1
1
1
1
1
1
1
1
1
1
1
1
1
1
1
1
1
1
1
1
1
1
1
1
1
1
1
1
1
1
1
1
1
1
1
1
1
1
1
1
1
1
1
1
1
1
1
1
1
1
1
1
1
1
1
1
1
1
1
1
1
1
1
1
1
1
1
1
1
1
1
1
1
1
1
1
1
1
1
1
1
1
1
1
1
1
1
1
1
1
1
1
1
1
1
1
1
1
1
1
1
1
1
1
1
1
1
1
1
1
1
1
1
1
1
1
1
1
1
1
1
1
1
1
1
1
1
1
1
1
1
1
1
1
1
1
1
1
1
1
1
1
1
1
1
1
1
1
1
1
1
1
1
1
1
1
1
1
1
1
1
1
1
1
1
1
1
1
1
1
1
1
1
1
1
1
1
1
1
1
1
1
1
1
1
1
1
1
1
1
1
1
1
1
1
1
1
1
1
1
1
1
1
1
1
1
1
1
1
1
1
1
1
1
1
1
1
1
1
1
1
1
1
1
1
1
1
1
1
1
1
1
1
1
1
1
1
1
1
1
VECTORS force double
1.07324 0 11.6406
-15.196 0 -24.0803
20.7836 0 17.6342
3.71375 0 -13.6493
-3.85466 0 23.4469
21.2125 0 -11.7227
16.2271 0 2.31376
-13.9687 0 15.0858
-17.6918 0 -15.7119
0.551271 0 10.6343
-14.099 0 -0.83701
43.9036 0 -44.9866
7.20217 0 -9.70797
13.2578 0 -18.0885
1.41501 0 0.418373
-17.9788 0 -2.34432
21.5739 0 5.84137
4.40079 0 8.81026
0 0 0
-36.9711 0 -75.0939
13.9668 0 2.07286
-8.37978 0 8.20058
-11.2796 0 -16.6533
2.61533 0 -6.57599
1.17707 0 8.18048
-4.80521 0 -5.48238
15.0637 0 6.32735
-1.16885 0 11.2712
2.86997 0 8.58433
-13.4036 0 9.67182
5.00406 0 23.8877
-22.584 0 -8.31639
-24.5132 0 -2.34488
32.7039 0 5.93613
2.72822 0 11.8799
1.09242 0 6.18684
-1.51216 0 -6.58101
8.58626 0 -17.9345
7.63929 0 10.9437
-14.0192 0 2.16899
-14.4716 0 -33.8189
0 0 0
-19.5258 0 6.14481
-6.19002 0 1.75528
-9.39996 0 3.25658
-11.2866 0 0.746069
-6.5143 0 6.46801
28.6468 0 -0.51756
29.322 0 4.28676
-22.9907 0 -17.4112
4.84639 0 -3.79304
12.3312 0 -39.7357
8.51518 0 28.5549
-22.8222 0 -0.862457
-30.003 0 -9.15668
3.1466 0 23.1896
-5.44492 0 -19.3474
-17.8083 0 18.0191
12.1306 0 -22.3203
-1.04467 0 11.825
8.65156 0 -0.756055
-14.9062 0 17.7776
-16.1044 0 20.6204
13.1473 0 10.1115
-34.2365 0 18.0383
-36.5657 0 -35.2079
28.1436 0 16.8535
32.4463 0 -3.15152
-101.042 0 15.6647
76.1073 0 7.61322
0.504721 0 14.789
-12.8106 0 -3.57462
-35.7042 0 51.0039
11.4678 0 -1.72732
16.7487 0 -2.42919
10.5685 0 14.7379
-87.2082 0 -44.8874
-95.6588 0 -28.4283
22.9285 0 -24.1462
4.12165 0 -11.2926
11.2097 0 -5.24931
0 0 0
-5.84709 0 9.45234
9.94701 0 -6.54059
-7.46152 0 10.375
9.45488 0 -7.91029
-7.87905 0 15.2729
14.654 0 6.21079
0 0 0
7.41874 0 -62.5663
12.5918 0 -10.8193
0 0 0
-22.1921 0 -6.68647
-5.04722 0 -6.46293
-6.92357 0 -6.34925
7.95394 0 10.8348
5.24002 0 38.1249
-10.219 0 8.8372
0 0 0
-11.2996 0 -4.87303
-39.0346 0 16.9687
-48.507 0 -8.27113
33.8977 0 16.4507
-4.03064 0 8.46498
7.84824 0 31.7211
-13.9192 0 -6.98607
-16.5709 0 5.81651
-12.1216 0 -5.12574
-9.64443 0 -18.7427
-27.25 0 -19.2587
-1.88308 0 17.5851
2.46435 0 60.0909
-58.4254 0 -43.7051
-22.0222 0 -3.32858
44.487 0 -28.7696
39.4411 0 19.3477
-3.56634 0 13.3868
13.2939 0 24.1279
9.70783 0 14.4594
-8.23215 0 -1.54548
2.15808 0 -26.1779
28.1516 0 -2.71149
19.4455 0 -13.0842
24.6626 0 -23.2359
22.1149 0 12.0992
-27.7276 0 22.8076
16.9438 0 -4.97702
25.3226 0 -19.0977
4.23128 0 -35.4747
-8.9581 0 -16.6952
-1.85202 0 7.09402
2.98937 0 8.89602
-56.1523 0 -6.79627
-26.2926 0 72.7409
10.7252 0 -6.04455
-2.90401 0 -6.89702
-39.2082 0 -125.076
99.2881 0 45.6117
-12.4483 0 45.6593
63.0701 0 11.917
18.0083 0 9.76771
-5.06668 0 -15.3235
5.93856 0 -66.6954
-16.9032 0 -4.3792
0 0 0
-17.2497 0 4.88013
102.259 0 -4.89805
-86.7788 0 24.2185
22.9724 0 -0.0918026
-24.9868 0 36.3138
-15.5069 0 -30.264
6.74504 0 -2.25145
8.54862 0 5.91476
1.65156 0 22.0897
1.03882 0 -1.36182
-10.8584 0 -3.756
2.64098 0 -3.02008
-5.15545 0 11.0565
-17.637 0 -3.18598
8.7636 0 6.9864
36.0614 0 12.9765
29.9581 0 51.2528
-11.5045 0 -1.91195
0.785266 0 -2.73225
-10.028 0 26.2558
2.86991 0 -0.10207
-21.9112 0 -23.3247
7.21569 0 8.33538
33.8193 0 -42.1776
-15.6727 0 39.8085
56.7743 0 -28.9628
-18.0497 0 3.39621
32.346 0 18.3837
10.3957 0 31.7829
-0.803866 0 14.4588
0.858196 0 8.8795
-34.2649 0 -20.0312
-10.9441 0 -18.7528
-27.6719 0 -6.46011
-0.49691 0 -37.7658
-1.52204 0 17.9494
-53.4473 0 40.2549
6.04785 0 -4.41392
-51.5647 0 -14.1327
27.933 0 -28.1887
-70.0108 0 -19.9255
40.0912 0 57.9959
5.68581 0 -2.20085
15.6833 0 31.3444
-3.83234 0 -24.0011
15.5246 0 -3.02928
-18.9914 0 -24.6073
5.72434 0 1.189
-23.2595 0 -6.49751
46.4298 0 -48.2276
-4.68604 0 17.081
-3.41369 0 2.15846
40.5925 0 150.44
15.9475 0 -13.4397
-25.0052 0 -8.46153
16.4162 0 91.7607
-21.758 0 -5.34358
13.9628 0 6.04077
15.026 0 -10.8527
29.3974 0 79.0846
-7.5034 0 -80.0242
7.45519 0 -9.40975
-0.126937 0 -3.14534
-1.1437 0 -4.41368
-14.8943 0 -7.02778
16.0854 0 -6.65067
10.4927 0 3.79593
39.4386 0 -3.28037
-15.4692 0 -1.25002
-9.29474 0 -13.1011
-0.0572704 0 9.31031
-8.06095 0 -5.93862
-1.75007 0 0.452482
23.648 0 -34.4084
-32.4843 0 -8.85045
27.3441 0 -80.496
3.40542 0 3.82903
-18.6279 0 -10.733
24.0837 0 2.3831
-11.6552 0 -7.6448
9.43705 0 9.40945
1.58957 0 -1.36055
5.42989 0 11.4611
-20.0382 0 44.2398
-2.01001 0 -21.746
20.3179 0 18.0659
-10.1816 0 -11.4049
-9.90375 0 -5.97413
7.68668 0 14.9567
3.56202 0 -13.7618
-39.1413 0 -34.3337
46.2829 0 -18.1898
-10.5167 0 -0.918009
56.2536 0 41.1487
-2.80709 0 38.9623
-39.8822 0 -55.5852
74.7352 0 41.8791
-18.2372 0 -5.17355
16.3713 0 46.1433
11.2792 0 -8.96368
-23.896 0 20.644
-26.9272 0 -12.3299
26.7868 0 3.8255
-36.279 0 -25.8608
13.8936 0 23.5734
27.9131 0 24.9289
53.7758 0 2.85466
23.9698 0 20.0549
-19.0373 0 -6.84318
-5.19381 0 -18.408
-23.7276 0 -97.7507
-10.4998 0 -75.5048
-2.53859 0 -7.26709
20.4566 0 -1.06485
1.03003 0 -8.10636
46.3357 0 26.7493
1.62672 0 1.97246
-24.5608 0 65.5216
68.7861 0 1.98753
8.30267 0 13.0534
0.472928 0 -3.76029
-13.8646 0 15.3268
-19.3435 0 11.5484
-5.50997 0 5.60078
0.210455 0 -2.54259
-0.0737641 0 -2.2697
23.0378 0 -15.2398
29.3348 0 6.48502
-3.88746 0 15.7556
-7.98496 0 14.0024
-12.5541 0 -60.1979
6.35162 0 42.9894
12.8365 0 16.8903
-1.28014 0 -2.12606
8.30109 0 -34.2637
-4.91266 0 22.8056
-7.18026 0 -10.6526
-6.24827 0 90.3142
5.79338 0 -15.9417
-9.87583 0 -3.92496
7.29693 0 -3.185
-0.675127 0 -20.9031
-16.4019 0 -3.00674
34.135 0 -49.9583
-22.7797 0 4.943
6.50283 0 -27.1845
-22.3784 0 1.47826
35.2985 0 14.1467
5.89184 0 8.438
32.9191 0 20.2368
-13.6502 0 -17.5844
-6.08151 0 45.6511
10.0969 0 -2.90992
-85.6925 0 48.0248
57.6116 0 -56.7573
6.23054 0 43.5864
36.3961 0 -19.1995
3.35967 0 -10.0677
-46.4175 0 -23.7235
10.3308 0 -8.28772
79.7939 0 2.53929
-24.7801 0 -29.0543
31.722 0 -9.83727
-29.6128 0 -7.50245
41.8133 0 21.2882
16.0605 0 -58.181
-17.6375 0 -32.5098
5.97187 0 -52.246
13.0765 0 9.24569
1.28316 0 -10.6241
23.4202 0 3.87682
5.64624 0 53.754
3.98115 0 -51.6999
4.49997 0 9.15639
-10.071 0 -6.4734
-17.3861 0 4.34678
2.58732 0 -3.04746
14.6029 0 6.76895
-4.0705 0 13.0158
-10.2972 0 16.657
-10.616 0 29.929
-60.7005 0 83.3467
15.4896 0 -134.269
8.68156 0 8.78278
-12.0713 0 4.9905
-13.4686 0 22.3401
-12.3635 0 4.81792
-16.0307 0 -20.0431
4.18594 0 -8.94747
-15.1874 0 -25.2004
-32.5705 0 -36.8326
7.21142 0 51.4343
50.3562 0 26.3176
1.13819 0 0.178092
23.9044 0 -8.73561
19.4455 0 -2.20312
0.988462 0 5.72963
16.9964 0 6.21949
43.0037 0 8.32095
46.6574 0 -18.7113
11.0076 0 6.15862
-10.0003 0 7.77627
128.53 0 -51.1344
-20.1294 0 23.8183
-25.6331 0 -2.78922
-40.8363 0 -5.60301
52.5984 0 -0.0482836
-20.2635 0 -16.3502
33.9199 0 -34.9702
-50.6679 0 19.1493
-26.1508 0 15.6603
53.5431 0 -23.3465
3.77607 0 -28.972
-58.8914 0 -29.1341
-9.70344 0 28.7612
5.85182 0 10.4908
-27.2332 0 17.482
12.4449 0 -56.5448
-35.5216 0 3.03956
-8.07548 0 17.446
21.5689 0 -7.30531
-26.9612 0 26.957
7.56512 0 13.0919
-2.04442 0 -10.37
-162.91 0 20.1308
158.506 0 53.269
-52.5909 0 3.29353
35.6465 0 42.8962
-1.75943 0 5.98712
-2.24726 0 -17.2056
-1.04997 0 86.1482
-20.8739 0 -40.3124
-59.9901 0 -16.3436
-6.83506 0 7.89732
-0.286123 0 14.9227
0.0588875 0 20.086
2.59242 0 -0.276076
-12.4349 0 -19.3314
1.49222 0 -7.22407
-69.7315 0 103.263
101.624 0 -85.5125
3.32176 0 -7.47287
-14.465 0 -18.7927
-3.57732 0 17.968
-80.565 0 -146.922
5.62627 0 37.977
-2.32169 0 -8.73222
7.5396 0 -10.9936
3.5525 0 -42.961
10.288 0 1.00529
0.950328 0 28.6014
17.9532 0 9.225
-9.63869 0 -29.952
-5.40166 0 -3.63023
-21.9507 0 52.5403
19.7152 0 2.28368
16.8615 0 -38.1487
13.6881 0 23.9152
-13.7264 0 -29.1894
-38.2285 0 39.7215
45.1669 0 6.91399
-0.784062 0 -8.06316
23.3934 0 12.2594
4.3951 0 -11.7501
-18.2533 0 17.5526
-48.0518 0 11.4765
64.2875 0 -17.1336
-53.4298 0 8.47544
56.7949 0 8.20573
-61.8555 0 20.3928
4.52452 0 14.2475
21.7195 0 5.52715
-0.813249 0 -19.8415
47.2408 0 33.2141
-6.53458 0 9.89981
14.4374 0 -19.3746
1.55499 0 5.12571
-42.8293 0 -12.7755
39.9474 0 51.5091
-13.9319 0 1.68813
-43.2107 0 -64.6859
-61.0416 0 -22.399
19.6913 0 -31.9869
46.3856 0 -47.5911
8.32548 0 1.13628
-18.0821 0 0.593404
-60.056 0 60.1676
-20.7497 0 29.7407
28.1572 0 -92.8469
34.5811 0 34.6026
-19.123 0 -8.35733
21.2274 0 -6.39473
33.6598 0 66.7407
-12.1828 0 -83.9406
-15.0195 0 -28.742
-1.16482 0 23.3495
22.134 0 -10.9932
16.516 0 -5.1497
12.5625 0 -1.71119
-16.0431 0 -17.5481
27.1225 0 -9.7561
-29.6632 0 19.3903
-5.30781 0 8.97138
3.33422 0 -27.5087
-8.39166 0 8.25382
-73.4707 0 -9.85109
-9.59101 0 -6.80122
-32.177 0 34.0922
19.3887 0 0.156079
-16.2574 0 -14.2415
7.44381 0 2.51487
2.00684 0 1.2254
14.1659 0 43.6723
-5.82251 0 -14.1611
-26.9353 0 6.42131
2.74461 0 0.226748
2.43692 0 -8.44714
-12.017 0 -14.7346
-17.4044 0 -17.6789
-166.908 0 84.0884
45.6325 0 -28.2746
-13.0051 0 47.5201
2.97293 0 -14.6214
9.64632 0 -23.1374
44.2642 0 -23.3292
-12.0072 0 -11.5037
-7.93723 0 -83.7039
-25.4938 0 20.3879
59.5106 0 -24.9022
-0.473621 0 -11.0299
53.7797 0 -38.3526
-9.79769 0 46.6608
-21.9423 0 -22.1684
28.9895 0 12.0685
-17.1968 0 -4.74025
17.93 0 4.19269
-22.4608 0 -33.7842
5.67384 0 -17.1949
1.38969 0 19.2935
-48.8758 0 19.2243
-2.65686 0 -3.05517
25.0949 0 50.7831
-16.0553 0 7.45257
5.12419 0 21.8198
-0.531419 0 9.25276
0.062222 0 25.6548
-0.222922 0 -1.04103
-2.43985 0 -0.389305
4.95955 0 -0.817555
-18.0178 0 9.94531
-17.8473 0 -9.19546
-13.519 0 -2.85017
-55.4267 0 60.139
-12.5984 0 76.3318
-98.539 0 -32.583
-17.3056 0 2.07522
-61.568 0 -53.3221
6.63674 0 23.3153
-9.64199 0 -3.80283
41.0508 0 -42.6974
3.37191 0 -15.9587
9.01681 0 1.0993
-14.8002 0 27.98
118.144 0 -81.5582
-60.6329 0 49.6225
-26.4354 0 -27.1546
45.5583 0 3.58096
-7.30743 0 47.2706
-19.2389 0 60.5228
-43.2422 0 -1.75327
-11.6318 0 5.68829
-24.0272 0 -43.7054
25.6022 0 -58.4923
25.3066 0 -45.1588
19.4755 0 0.825603
-34.9884 0 -14.8725
-24.3924 0 36.2479
-9.59541 0 -18.1502
-13.5694 0 -4.98531
3.2276 0 7.50641
-26.9665 0 13.9991
-23.8544 0 26.8701
-7.45446 0 12.3127
21.193 0 -75.7725
-19.4796 0 65.5676
22.4973 0 73.0053
-25.9888 0 -87.3812
3.02762 0 -20.9586
4.01576 0 3.71237
29.5174 0 -19.0223
-1.48224 0 3.35923
22.0325 0 11.0368
-14.1527 0 -4.67681
5.73599 0 -22.0501
-22.8662 0 -8.20522
-18.7567 0 16.7206
-16.9351 0 46.8136
49.3158 0 -40.8309
-4.62735 0 21.1944
3.18544 0 -10.0491
50.9727 0 -27.2508
6.43674 0 -5.86048
0.287544 0 3.11965
22.1048 0 -66.2206
2.45013 0 39.288
-33.078 0 -1.0447
-2.08232 0 18.9701
-41.3945 0 -6.62191
48.1365 0 16.5746
2.47906 0 9.2629
1.94444 0 11.676
-8.41375 0 -1.71898
-53.2951 0 -112.92
6.83274 0 -24.13
15.0842 0 31.0619
84.7064 0 -24.1808
120.844 0 17.9039
-15.7109 0 3.54468
16.3354 0 40.5273
-24.8817 0 12.4899
18.8306 0 -1.18946
-27.5126 0 14.9566
64.3138 0 51.5264
-47.3873 0 69.7196
-22.968 0 -36.8713
2.78426 0 -0.282236
-6.37527 0 -20.5494
25.9703 0 21.8901
-7.27979 0 1.35245
23.1172 0 -7.55686
5.1277 0 -12.8548
8.14757 0 8.60914
-0.190239 0 25.1293
-32.7833 0 8.78576
-30.416 0 -14.6522
-8.24623 0 -7.341
17.9833 0 19.81
15.3663 0 -6.50149
4.59625 0 10.0965
1.78652 0 -32.7887
-8.69928 0 -17.1264
0.622567 0 13.9221
-11.1664 0 77.5114
-82.7873 0 57.1824
84.9809 0 32.4305
0.652572 0 -2.8539
1.06771 0 38.1294
-27.2437 0 2.03741
8.89944 0 -1.62707
14.2135 0 -35.7538
-19.787 0 23.013
-6.86431 0 -2.91648
27.1282 0 -33.8005
-27.7717 0 18.1345
4.35562 0 2.85239
-6.79998 0 34.6496
10.01 0 9.89473
-4.95337 0 10.1989
-14.834 0 -5.23398
0.139531 0 -17.1388
49.9474 0 -15.9258
3.52205 0 1.90526
-2.32295 0 69.7551
-22.583 0 43.5338
-4.88442 0 -3.64392
-8.46753 0 -15.0291
1.91587 0 5.17174
-126.038 0 17.8288
125.645 0 -35.2903
17.4616 0 -22.0535
-122.175 0 -44.6026
9.46652 0 -16.5264
-53.6252 0 -22.8861
71.6653 0 134.224
-2.42043 0 -29.4818
-18.6149 0 -6.09197
-16.0582 0 5.78365
-13.8411 0 0.574613
20.5921 0 41.8758
-2.33686 0 -16.8574
22.1226 0 -13.071
12.7274 0 -16.2545
33.3364 0 -4.87135
-105.357 0 60.6101
120.63 0 104.902
-13.6769 0 -3.245
-9.96286 0 -3.89379
65.5496 0 5.57501
-77.4674 0 -20.2736
38.5811 0 34.1065
-22.8575 0 -31.2486
3.54211 0 16.9685
22.3972 0 -7.58016
-11.3348 0 15.2334
-2.49026 0 -6.59356
6.94865 0 12.4135
10.8996 0 8.33821
-2.53541 0 1.73578
-13.4108 0 4.32887
31.526 0 10.4145
-17.501 0 -10.9899
17.2464 0 -0.0593664
-4.35604 0 -6.19775
-6.80114 0 2.66121
-6.61666 0 -7.6955
5.32816 0 5.00811
-24.7006 0 -109.605
-14.2275 0 11.1254
-5.7916 0 -12.7439
-144.544 0 -28.588
121.213 0 8.5326
10.7404 0 -13.8936
-8.77336 0 31.1178
-0.666464 0 -6.92324
5.51044 0 9.27055
9.46612 0 15.8695
8.78033 0 -2.18903
-6.46981 0 -32.6132
-12.828 0 -17.8135
4.54718 0 33.4376
6.41534 0 -14.0318
3.71432 0 1.84887
-8.73755 0 13.1105
-41.4208 0 -15.9497
12.9224 0 -53.4593
-29.5213 0 4.51404
58.3595 0 27.3186
-1.80231 0 -19.924
-5.03699 0 1.59376
-45.7474 0 -49.1335
-33.2194 0 8.87835
94.5224 0 62.7861
-3.75243 0 2.84067
-31.9809 0 41.5301
2.48051 0 -11.9595
-84.8336 0 -63.6415
134.844 0 37.3932
28.927 0 10.4454
-11.4388 0 10.3999
4.25132 0 10.7179
-10.0676 0 47.0429
56.0453 0 -2.92639
26.0381 0 9.66634
-1.01077 0 -19.5103
0.0474954 0 3.2363
-7.10415 0 -3.68648
101.8 0 -75.9247
8.42087 0 -19.5627
-40.9091 0 0.733315
-8.55282 0 -1.50104
35.1922 0 36.6151
24.7897 0 17.238
9.0933 0 -4.30086
8.51406 0 6.29387
-0.107661 0 5.19597
-19.0321 0 -8.28383
1.33746 0 -9.38443
-14.6461 0 14.7035
-10.7688 0 23.5448
1.29215 0 7.28976
26.5968 0 12.1014
6.08667 0 4.89705
-19.95 0 -11.5072
24.9526 0 8.78147
-73.0623 0 12.7949
1.30794 0 0.619908
-36.0192 0 108.684
-18.36 0 2.93277
94.9509 0 -76.9007
-0.113013 0 -2.79798
10.0962 0 21.2237
-1.04242 0 -13.0064
0.928464 0 11.1223
-12.0552 0 -10.7268
-10.6231 0 3.46516
1.61158 0 -4.53618
17.2291 0 -18.3875
57.023 0 -28.7561
2.24347 0 31.7879
1.59338 0 17.4738
13.3628 0 -12.0854
12.0627 0 -22.3574
1.36775 0 3.21443
15.4669 0 4.23907
48.3993 0 -68.189
9.0313 0 1.62593
11.9313 0 -16.4719
3.09071 0 0.321154
14.545 0 -11.5184
28.2248 0 42.1772
9.34966 0 -1.69289
8.14094 0 9.4414
13.7132 0 1.67992
-29.408 0 23.7563
95.5325 0 -10.4968
-7.45915 0 -21.6422
7.9238 0 -8.82299
-1.50991 0 0.98218
-3.30505 0 -28.04
-8.07514 0 -13.752
8.56455 0 -21.9372
7.25443 0 6.16756
-38.0772 0 -16.0216
5.81601 0 -18.9323
60.6842 0 -15.0955
14.7205 0 -5.16482
-81.1729 0 87.3838
8.88575 0 -7.96267
18.1908 0 -0.109531
12.4772 0 -3.88312
5.51163 0 -12.9359
-15.2537 0 -21.9185
4.06141 0 4.22955
68.0789 0 14.1185
-28.4089 0 -43.1988
2.98474 0 4.96466
3.5918 0 -52.3653
1.51238 0 8.11328
20.8598 0 0.577957
-22.574 0 17.9467
-9.04869 0 3.25637
-53.3084 0 6.77557
43.3222 0 -19.5639
18.0205 0 -31.7802
84.1264 0 -2.58976
8.02765 0 -8.88041
-51.2858 0 72.4376
32.1207 0 74.3329
-1.40676 0 1.83423
22.9912 0 -66.8794
-0.205134 0 -31.0071
-6.89609 0 -0.0352931
38.4538 0 -54.4418
3.16959 0 13.7199
-10.1938 0 18.7423
20.5471 0 -4.51271
-48.6767 0 32.1998
0.447675 0 7.16097
-8.26639 0 -9.13398
4.0392 0 -43.3655
-15.2538 0 30.3736
34.8801 0 -53.274
2.09132 0 -1.39763
-48.2611 0 35.9944
-30.7988 0 86.0648
-35.6799 0 9.89095
26.0788 0 -13.559
-10.9663 0 29.7496
12.5981 0 -53.7809
-2.12535 0 -8.16836
20.9816 0 -16.4286
13.5493 0 -17.7301
17.3847 0 3.02073
-9.0841 0 7.54007
21.6213 0 -17.1436
-5.5578 0 18.3771
-8.04526 0 13.6254
-6.76266 0 -25.4941
-0.982555 0 10.0159
-53.9084 0 -1.59033
-8.30748 0 -14.1998
-2.83827 0 -39.7627
-15.1201 0 9.82399
-9.79385 0 -1.31923
-2.38322 0 -67.0484
18.6197 0 -2.71139
2.26567 0 -0.342258
21.2097 0 4.56192
-11.2316 0 18.4685
-39.6458 0 -12.704
51.4285 0 5.35564
30.2141 0 -37.6954
-9.2306 0 -2.93456
-19.5156 0 -12.4209
21.0678 0 21.3914
-6.54449 0 -11.6399
-15.0766 0 -9.82005
-1.34361 0 1.95867
-6.89458 0 -55.1765
-10.5084 0 0.817232
1.29028 0 -21.06
-1.79154 0 -3.50438
0.0745928 0 6.02532
-23.0787 0 -17.1706
-46.3705 0 0.0883253
-9.6128 0 8.20434
-46.41 0 -13.7673
60.9694 0 -10.3385
-7.21531 0 5.51326
52.5212 0 9.59934
-7.14498 0 -9.10732
-64.7119 0 -3.0344
23.5957 0 1.1322
4.44057 0 -17.0485
-21.6744 0 -1.4175
18.7585 0 20.4256
5.39882 0 -57.3626
-1.08126 0 15.9724
4.77173 0 -4.04308
5.05626 0 31.0434
8.65475 0 33.7386
-48.3257 0 37.8641
-53.9417 0 23.7795
33.7465 0 -95.9765
-39.7895 0 -21.835
-66.5371 0 -10.7247
-2.7336 0 -23.8627
110.174 0 -24.7286
-29.1676 0 44.902
0.386836 0 12.1788
-19.4325 0 9.38326
-2.33993 0 -5.12688
-9.05516 0 2.27198
-1.95236 0 5.61068
8.33053 0 8.22625
-12.1899 0 -40.3504
32.502 0 16.2859
22.0063 0 26.3066
-96.6863 0 19.8269
-38.7671 0 8.10402
10.1041 0 19.5815
-9.67334 0 35.8853
-5.02554 0 -10.8446
0.253647 0 89.9579
11.9234 0 -21.5902
-8.81162 0 17.3318
-9.79916 0 -14.2758
13.0745 0 11.1134
-17.0129 0 -2.0986
-3.5438 0 -36.4121
-7.28334 0 13.8996
-39.5106 0 -106.047
-8.16489 0 4.50096
15.4234 0 50.0279
-14.606 0 22.0986
-5.9255 0 -2.56931
31.363 0 -26.3138
-32.461 0 -62.4203
-9.11024 0 -18.1491
13.6165 0 15.7514
-45.7292 0 -44.5386
6.53042 0 4.20897
11.7225 0 -18.4279
11.1224 0 4.30373
18.6337 0 -6.0789