# vtk DataFile Version 3.0
SiWiRVisFile
ASCII
DATASET UNSTRUCTURED_GRID
POINTS 1600 DOUBLE
76.8744 100 72.7477
77.275 100 73.773
78.2884 100 74.2665
80.0745 100 74.3208
81.1674 100 74.902
82.2365 100 75.3426
83.9988 100 74.8639
85.0976 100 75.2955
86.1783 100 75.6247
85.1166 100 74.2243
91.0179 100 73.7644
91.5005 100 72.2437
89.8648 100 73.9396
89.4742 100 72.2283
88.878 100 71.3061
91.648 100 64.4131
92.8339 100 65.5516
94.7569 100 63.6697
91.9862 100 59.9152
96.4915 100 62.0076
104.028 100 46.9974
105.39 100 49.13
105.683 100 47.9159
106.868 100 48.1493
105.169 100 46.9023
108.8 100 48.0195
109.962 100 42.7401
111.019 100 42.3249
110.653 100 43.6227
111.743 100 43.5124
112.785 100 43.4665
113.846 100 43.6234
113.444 100 42.3018
114.506 100 42.709
115.78 100 48.0102
119.323 100 46.9037
117.622 100 48.1485
118.809 100 47.917
119.103 100 49.1307
120.463 100 46.9968
128.009 100 61.9551
132.506 100 59.9152
129.439 100 63.7545
131.707 100 65.5653
132.837 100 64.4992
135.621 100 71.3248
135.035 100 72.2397
134.643 100 73.9252
132.977 100 72.2233
133.471 100 73.7478
139.376 100 74.2238
138.312 100 75.6179
139.393 100 75.294
140.491 100 74.8639
142.255 100 75.3421
143.325 100 74.9019
144.417 100 74.3215
146.204 100 74.2672
147.218 100 73.7729
147.618 100 72.7477
76.4186 100 74.4158
77.3071 100 74.9622
79.1729 100 74.9353
80.2241 100 75.4501
81.2276 100 75.9531
83.1947 100 75.7218
84.2348 100 76.0705
85.234 100 76.4446
86.2677 100 76.799
87.375 100 77.1189
88.6319 100 77.1521
92.6039 100 72.1367
90.3002 100 72.9444
91.1643 100 70.1559
92.7203 100 66.8136
90.5116 100 71.7431
93.4644 100 64.5196
95.9267 100 63.0326
97.0455 100 63.2031
98.6417 100 63.1464
104.414 100 47.9506
98.5899 100 53.9232
105.888 100 55.4386
110.555 100 46.4154
106.397 100 47.06
108.739 100 49.244
109.53 100 47.0624
109.505 100 46.0091
108.402 100 42.5912
111.687 100 44.66
112.77 100 44.6421
116.106 100 42.6015
114.991 100 46.0114
114.975 100 47.0687
115.733 100 49.2776
118.094 100 47.0593
113.95 100 46.4943
118.506 100 55.3577
125.902 100 53.9232
120.079 100 47.9503
125.933 100 63.1133
127.465 100 63.29
128.689 100 62.9449
131.069 100 64.4437
133.977 100 71.7767
131.757 100 66.7842
133.401 100 70.1679
134.188 100 72.9108
131.876 100 72.1289
135.872 100 77.1318
137.113 100 77.1212
138.227 100 76.7975
139.26 100 76.443
140.26 100 76.0697
141.297 100 75.72
143.265 100 75.9529
144.268 100 75.4507
145.319 100 74.9355
147.186 100 74.9626
148.074 100 74.4158
76.3451 100 75.6791
77.3353 100 76.1299
78.2688 100 75.516
79.2708 100 75.9847
80.3353 100 76.5052
82.2573 100 76.5038
83.3669 100 76.8345
84.3964 100 77.137
85.4146 100 77.5417
86.5334 100 77.9856
87.7809 100 78.186
88.9768 100 78.2241
91.065 100 76.7837
91.5078 100 71.2156
92.6576 100 68.9592
93.2998 100 67.8963
93.9499 100 65.7207
94.6202 100 64.8074
96.0405 100 64.0676
97.5672 100 62.2548
98.8855 100 61.882
103.807 100 57.0668
105.612 100 56.6599
106.885 100 56.4921
104.521 100 52.8168
106.949 100 55.4482
106.968 100 54.3103
105.522 100 54.223
110.459 100 45.0392
111.434 100 45.7491
113.103 100 45.7454
113.966 100 45.0603
118.953 100 53.7711
117.427 100 54.3013
117.366 100 55.408
119.899 100 53.2196
117.831 100 56.4857
119.008 100 56.4548
120.706 100 57.2924
125.626 100 61.9483
126.965 100 62.2049
128.475 100 63.9764
129.78 100 64.8078
130.481 100 65.6629
131.084 100 67.6994
131.932 100 68.8169
132.985 100 71.2007
133.536 100 76.893
135.519 100 78.1941
136.717 100 78.1809
137.959 100 77.9815
139.076 100 77.5405
140.096 100 77.1329
141.127 100 76.8299
142.235 100 76.5036
144.156 100 76.5056
145.222 100 75.985
146.224 100 75.5163
147.157 100 76.13
148.147 100 75.6795
76.4032 100 76.8763
77.3317 100 77.2732
78.3534 100 76.6005
79.3573 100 77.1203
81.2404 100 77.2103
82.4693 100 77.5769
83.5594 100 77.9189
84.585 100 78.2263
85.7842 100 78.8995
87.0534 100 78.9433
88.4387 100 79.2559
89.8587 100 78.7849
89.7282 100 77.4624
92.7852 100 71.0515
92.3002 100 69.9552
93.7564 100 69.0226
94.5783 100 67.7593
93.9444 100 66.8817
94.9508 100 65.9936
95.9327 100 65.2201
97.023 100 64.5065
99.7597 100 63.1093
104.159 100 55.96
105.18 100 59.1155
105.212 100 58.0839
106.456 100 57.4953
108.842 100 57.0916
110.182 100 57.3184
108.106 100 55.0937
111.427 100 47.2142
113.036 100 47.2062
116.299 100 54.9577
114.546 100 56.9687
115.508 100 57.3576
118.36 100 57.3489
119.505 100 57.419
119.131 100 58.9919
120.083 100 56.3061
124.798 100 63.0907
127.509 100 64.5247
128.654 100 65.1633
129.375 100 66.1301
130.634 100 66.7148
129.977 100 67.9876
130.768 100 68.9799
132.169 100 69.9406
131.714 100 71.0402
134.734 100 77.4781
134.656 100 78.7856
136.035 100 79.2372
137.424 100 78.9418
138.712 100 78.8822
139.915 100 78.2172
140.933 100 77.9154
142.025 100 77.5759
143.252 100 77.2105
145.136 100 77.1207
146.139 100 76.6006
147.161 100 77.2731
148.089 100 76.8762
76.3325 100 78.0166
77.4975 100 78.3625
78.4081 100 77.7267
80.3848 100 77.7563
81.5506 100 78.2681
82.6632 100 78.5914
83.5728 100 79.1909
84.7366 100 79.474
86.3078 100 79.8136
87.4247 100 79.899
88.391 100 80.6345
90.8246 100 79.3787
91.2961 100 77.8955
94.6083 100 70.1274
93.3962 100 70.0379
96.2317 100 68.8497
95.6394 100 68.0018
95.8532 100 66.6096
96.8398 100 65.9099
98.1292 100 65.3402
97.868 100 63.9105
102.921 100 63.1411
106.216 100 58.5872
107.262 100 58.1813
107.856 100 57.2614
108.413 100 58.5186
109.548 100 58.2958
110.239 100 59.0826
107.968 100 56.1478
111.349 100 49.1537
113.134 100 49.1216
116.681 100 56.1571
113.745 100 58.7922
114.881 100 58.4068
115.96 100 58.4114
116.713 100 57.2277
117.091 100 58.2591
118.019 100 58.8753
121.716 100 62.9458
126.647 100 63.9651
126.337 100 65.4083
127.678 100 65.8309
128.421 100 66.6133
128.784 100 67.619
128.407 100 68.7947
131.022 100 70.001
129.889 100 70.3722
133.279 100 78.0339
133.68 100 79.2974
136.133 100 80.684
137.048 100 79.8877
138.178 100 79.8031
139.77 100 79.4733
140.928 100 79.1972
141.833 100 78.5905
142.947 100 78.2665
144.108 100 77.7562
146.085 100 77.7268
146.996 100 78.3612
148.161 100 78.016
76.6326 100 79.1496
77.6792 100 79.4449
78.5456 100 78.7521
79.5232 100 78.3452
80.6767 100 78.7606
81.6818 100 79.372
82.7442 100 79.785
83.9415 100 80.2345
85.0399 100 80.4978
86.0804 100 80.8791
87.2358 100 80.9141
89.2476 100 80.0208
91.5246 100 80.4672
90.9534 100 75.5817
92.1304 100 75.0753
94.9048 100 68.7852
96.8304 100 69.9249
96.9992 100 68.0695
97.0956 100 66.9963
98.9268 100 66.2102
98.8607 100 64.404
101.079 100 64.1995
103.926 100 61.792
104.977 100 61.9229
106.353 100 59.64
107.488 100 59.2221
108.034 100 60.2486
109.2 100 59.2742
111.648 100 59.2655
111.423 100 57.1704
113.333 100 57.0697
112.747 100 59.4746
114.95 100 59.5042
116.479 100 60.3144
116.942 100 59.4224
119.004 100 60.3862
119.621 100 61.7485
120.846 100 62.0924
123.427 100 64.1607
125.638 100 64.4249
125.635 100 66.261
127.64 100 67.3417
127.285 100 68.4633
127.494 100 69.513
129.643 100 69.2709
132.335 100 75.0455
133.47 100 75.5111
133.037 100 80.4307
135.304 100 80.0815
137.263 100 80.9034
138.417 100 80.873
139.475 100 80.5045
140.561 100 80.2429
141.756 100 79.8065
142.823 100 79.3618
143.818 100 78.7605
144.965 100 78.3501
145.947 100 78.7518
146.815 100 79.4425
147.862 100 79.1492
75.5586 100 79.8839
76.7684 100 80.2777
78.7796 100 79.9811
79.727 100 79.48
80.7498 100 80.0688
81.0393 100 81.7402
82.794 100 80.9069
84.1471 100 81.3062
85.3302 100 81.6836
86.457 100 81.804
87.6621 100 81.9121
90.3622 100 80.3097
91.692 100 81.6595
91.9307 100 76.2212
95.5835 100 71.1154
95.7152 100 69.8504
97.7831 100 70.6197
98.6322 100 68.4889
98.1002 100 67.1955
99.7042 100 65.3379
99.8757 100 64.2277
102.19 100 63.9337
104.215 100 62.779
106.852 100 60.6993
108.718 100 61.1933
109.483 100 60.2787
109.542 100 63.5462
110.874 100 60.0577
108.99 100 64.3719
110.209 100 65.2105
114.29 100 63.8861
115.38 100 63.707
113.819 100 59.8641
114.508 100 62.8879
115.023 100 60.6375
115.822 100 61.3554
117.581 100 60.4919
120.148 100 63.084
122.313 100 63.9875
124.581 100 64.184
124.929 100 65.2527
126.452 100 67.2526
126.096 100 68.7723
127.017 100 70.5249
128.628 100 69.8325
128.966 100 71.0303
132.464 100 76.1278
132.523 100 81.6094
134.164 100 80.244
136.837 100 81.9007
138.043 100 81.795
139.14 100 81.6869
140.34 100 81.3225
141.682 100 80.8981
143.462 100 81.7619
143.742 100 80.069
144.765 100 79.4816
145.711 100 79.9807
147.726 100 80.2755
148.933 100 79.884
75.9652 100 80.9978
76.9392 100 81.3591
77.9284 100 80.7139
78.8308 100 81.6431
79.5375 100 80.776
79.9419 100 81.933
82.305 100 81.9245
83.2972 100 82.108
84.5474 100 82.4425
85.6524 100 82.8168
86.8518 100 82.8117
87.9973 100 83.0255
89.5542 100 81.172
88.7216 100 82.0878
89.6113 100 82.9122
92.5526 100 80.331
96.7458 100 71.0776
98.3377 100 69.6859
100.031 100 68.3073
99.1753 100 67.5563
100.42 100 66.2365
101.079 100 65.2574
103.612 100 64.0252
106.074 100 61.8773
107.649 100 61.4499
109.262 100 62.1875
108.23 100 62.5599
106.84 100 65.1405
107.998 100 64.7952
110.205 100 66.483
114.826 100 66.3205
116.521 100 64.7481
117.604 100 65.1983
115.664 100 62.4846
114.613 100 61.6983
116.965 100 61.5031
118.442 100 61.4879
120.829 100 64.0113
123.415 100 65.213
123.985 100 66.2175
125.31 100 67.271
125.061 100 68.4254
126.238 100 69.7452
127.846 100 71.1511
131.703 100 80.3868
134.831 100 82.8762
135.771 100 82.0874
134.956 100 81.1586
136.514 100 83.0141
137.662 100 82.8118
138.821 100 82.83
139.92 100 82.4567
141.217 100 82.1051
142.207 100 81.9077
144.548 100 81.9324
144.952 100 80.7777
145.666 100 81.6402
146.548 100 80.7326
147.552 100 81.3544
148.528 100 80.9982
75.623 100 82.1891
76.8085 100 82.4991
77.8245 100 82.0305
79.1939 100 82.9174
79.9562 100 83.8561
79.6143 100 85.0563
80.579 100 82.8152
82.2972 100 83.0355
83.3682 100 83.2368
82.5107 100 84.1072
84.3485 100 83.6318
86.0581 100 84.0196
87.3469 100 83.9238
88.7331 100 83.8192
90.6706 100 83.3037
92.0961 100 79.3224
97.3237 100 72.9305
97.8158 100 71.695
99.4051 100 69.4524
100.588 100 69.3399
102.179 100 66.1388
[...]
POINT_DATA 1600
SCALARS mass double
LOOKUP_TABLE default
1
1
1
1
1
1
1
1
1
1
1
1
1
1
1
1
1
1
1
1
1
1
1
1
1
1
1
1
1
1
1
1
1
1
1
1
1
1
1
1
1
1
1
1
1
1
1
1
1
1
1
1
1
1
1
1
1
1
1
1
1
1
1
1
1
1
1
1
1
1
1
1
1
1
1
1
1
1
1
1
1
1
1
1
1
1
1
1
1
1
1
1
1
1
1
1
1
1
1
1
1
1
1
1
1
1
1
1
1
1
1
1
1
1
1
1
1
1
1
1
1
1
1
1
1
1
1
1
1
1
1
1
1
1
1
1
1
1
1
1
1
1
1
1
1
1
1
1
1
1
1
1
1
1
1
1
1
1
1
1
1
1
1
1
1
1
1
1
1
1
1
1
1
1
1
1
1
1
1
1
1
1
1
1
1
1
1
1
1
1
1
1
1
1
1
1
1
1
1
1
1
1
1
1
1
1
1
1
1
1
1
1
1
1
1
1
1
1
1
1
1
1
1
1
1
1
1
1
1
1
1
1
1
1
1
1
1
1
1
1
1
1
1
1
1
1
1
1
1
1
1
1
1
1
1
1
1
1
1
1
1
1
1
1
1
1
1
1
1
1
1
1
1
1
1
1
1
1
1
1
1
1
1
1
1
1
1
1
1
1
1
1
1
1
1
1
1
1
1
1
1
1
1
1
1
1
1
1
1
1
1
1
1
1
1
1
1
1
1
1
1
1
1
1
1
1
1
1
1
1
1
1
1
1
1
1
1
1
1
1
1
1
1
1
1
1
1
1
1
1
1
1
1
1
1
1
1
1
1
1
1
1
1
1
1
1
1
1
1
1
1
1
1
1
1
1
1
1
1
1
1
1
1
1
1
1
1
1
1
1
1
1
1
1
1
1
1
1
1
1
1
1
1
1
1
1
1
1
1
1
1
1
1
1
1
1
1
1
1
1
1
1
1
1
1
1
1
1
1
1
1
1
1
1
1
1
1
1
1
1
1
1
1
1
1
1
1
1
1
1
1
1
1
1
1
1
1
1
1
1
1
1
1
1
1
1
1
1
1
1
1
1
1
1
1
1
1
1
1
1
1
1
1
1
1
1
1
1
1
1
1
1
1
1
1
1
1
1
1
1
1
1
1
1
1
1
1
1
1
1
1
1
1
1
1
1
1
1
1
1
1
1
1
1
1
1
1
1
1
1
1
1
1
1
1
1
1
1
1
1
1
1
1
1
1
1
1
1
1
1
1
1
1
1
1
1
1
1
1
1
1
1
1
1
1
1
1
1
1
1
1
1
1
1
1
1
1
1
1
1
1
1
1
1
1
1
1
1
1
1
1
1
1
1
1
1
1
1
1
1
1
1
1
1
1
1
1
1
1
1
1
1
1
1
1
1
1
1
1
1
1
1
1
1
1
1
1
1
1
1
1
1
1
1
1
1
1
1
1
1
1
1
1
1
1
1
1
1
1
1
1
1
1
1
1
1
1
1
1
1
1
1
1
1
1
1
1
1
1
1
1
1
1
1
1
1
1
1
1
1
1
1
1
1
1
1
1
1
1
1
1
1
1
1
1
1
1
1
1
1
1
1
1
1
1
1
1
1
1
1
1
1
1
1
1
1
1
1
1
1
1
1
1
1
1
1
1
1
1
1
1
1
1
1
1
1
1
1
1
1
1
1
1
1
1
1
1
1
1
1
1
1
1
1
1
1
1
1
1
1
1
1
1
1
1
1
1
1
1
1
1
1
1
1
1
1
1
1
1
1
1
1
1
1
1
1
1
1
1
1
1
1
1
1
1
1
1
1
1
1
1
1
1
1
1
1
1
1
1
1
1
1
1
1
1
1
1
1
1
1
1
1
1
1
1
1
1
1
1
1
1
1
1
1
1
1
1
1
1
1
1
1
1
1
1
1
1
1
1
1
1
1
1
1
1
1
1
1
1
1
1
1
1
1
1
1
1
1
1
1
1
1
1
1
1
1
1
1
1
1
1
1
1
1
1
1
1
1
1
1
1
1
1
1
1
1
1
1
1
1
1
1
1
1
1
1
1
1
1
1
1
1
1
1
1
1
1
1
1
1
1
1
1
1
1
1
1
1
1
1
1
1
1
1
1
1
1
1
1
1
1
1
1
1
1
1
1
1
1
1
1
1
1
1
1
1
1
1
1
1
1
1
1
1
1
1
1
1
1
1
1
1
1
1
1
1
1
1
1
1
1
1
1
1
1
1
1
1
1
1
1
1
1
1
1
1
1
1
1
1
1
1
1
1
1
1
1
1
1
1
1
1
1
1
1
1
1
1
1
1
1
1
1
1
1
1
1
1
1
1
1
1
1
1
1
1
1
1
1
1
1
1
1
1
1
1
1
1
1
1
1
1
1
1
1
1
1
1
1
1
1
1
1
1
1
1
1
1
1
1
1
1
1
1
1
1
1
1
1
1
1
1
1
1
1
1
1
1
1
1
1
1
1
1
1
1
1
1
1
1
1
1
1
1
1
1
1
1
1
1
1
1
1
1
1
1
1
1
1
1
1
1
1
1
1
1
1
1
1
1
1
1
1
1
1
1
1
1
1
1
1
1
1
1
1
1
1
1
1
1
1
1
1
1
1
1
1
1
1
1
1
1
1
1
1
1
1
1
1
1
1
1
1
1
1
1
1
1
1
1
1
1
1
1
1
1
1
1
1
1
1
1
1
1
1
1
1
1
1
1
1
1
1
1
1
1
1
1
1
1
1
1
1
1
1
1
1
1
1
1
1
1
1
1
1
1
1
1
1
1
1
1
1
1
1
1
1
1
1
1
1
1
1
1
1
1
1
1
1
1
1
1
1
1
1
1
1
1
1
1
1
1
1
1
1
1
1
1
1
1
1
1
1
1
1
1
1
1
1
1
1
1
1
1
1
1
1
1
1
1
1
1
1
1
1
1
1
1
1
1
1
1
1
1
1
1
1
1
1
1
1
1
1
1
1
1
1
1
1
1
1
1
1
1
1
1
1
1
1
1
1
1
1
1
1
1
1
1
1
1
1
1
1
1
1
1
1
1
1
1
1
1
1
1
1
1
1
1
1
1
1
1
1
1
1
1
1
1
1
1
1
1
1
1
1
1
1
1
1
1
1
1
1
1
1
1
1
1
1
1
1
1
1
1
1
1
1
1
1
1
1
1
1
1
1
1
1
1
1
1
1
1
1
1
1
1
1
1
1
1
1
1
1
1
1
1
1
1
1
1
1
1
1
1
1
1
1
1
1
1
1
1
1
1
1
1
1
1
1
1
1
1
1
1
1
1
1
1
1
1
1
1
1
1
1
1
1
1
1
1
1
1
1
1
1
1
1
1
1
1
1
1
1
1
1
1
1
1
1
1
1
1
1
1
1
1
1
1
1
1
1
1
1
1
1
1
1
1
1
1
1
1
1
1
1
1
1
1
1
1
1
1
1
1
1
1
1
1
1
1
1
1
1
1
1
1
1
1
1
1
1
1
1
1
1
1
1
1
1
1
1
1
1
1
1
1
1
1
1
1
1
1
1
1
1
1
1
1
1
1
1
1
1
1
1
1
1
1
1
1
1
1
1
1
1
1
1
1
1
1
1
1
1
1
1
1
1
1
1
1
VECTORS force double
-2.83926 0 -3.85186
24.2045 0 5.36583
-13.6348 0 16.976
18.8505 0 5.81737
3.1885 0 -44.8576
-73.94 0 -11.838
13.841 0 18.8691
-13.3214 0 35.7968
-12.3875 0 17.3023
-8.7251 0 -15.128
2.61926 0 9.39925
-9.01377 0 77.1522
2.8173 0 10.3101
3.23125 0 0.252049
-1.75129 0 -6.27372
4.11216 0 2.40262
7.33542 0 1.72077
15.2097 0 7.49271
0 0 0
-5.65136 0 17.2079
-18.8683 0 -62.7673
1.33206 0 -17.4564
-7.72749 0 12.2306
-16.1032 0 -10.7331
2.1376 0 15.148
5.48815 0 2.24202
-0.676872 0 -1.31763
-0.374538 0 18.6402
-2.33551 0 4.41963
-40.7644 0 3.87899
29.0655 0 -2.11169
16.4665 0 5.5417
0.166792 0 19.3203
-1.70497 0 0.361274
-7.08114 0 2.12553
-2.18268 0 14.9995
15.7806 0 -10.8123
7.21819 0 11.8391
-1.33291 0 -17.4278
19.1343 0 -63.5247
24.877 0 11.9441
0 0 0
145.896 0 -28.7797
-17.6261 0 2.93401
-5.48956 0 3.16075
4.8339 0 -10.9743
-1.97192 0 0.772554
-9.08375 0 -0.567772
3.89731 0 87.0172
3.09196 0 5.61052
8.76875 0 -15.8931
12.1722 0 17.7037
13.8001 0 36.8366
-13.7438 0 18.7663
75.3815 0 -12.2143
-3.16745 0 -44.8905
-18.8533 0 5.81097
13.5347 0 17.0645
-24.2953 0 5.48949
2.86935 0 -3.93347
-59.1705 0 -0.411183
40.8356 0 23.6894
15.245 0 -33.4885
-13.4436 0 -36.519
53.6704 0 28.7308
50.1239 0 24.9427
-20.7358 0 -35.4928
31.4079 0 -20.3902
14.9448 0 9.54751
-1.83464 0 12.6735
-14.2605 0 11.1389
-3.62929 0 1.68043
15.5105 0 -32.7244
7.7545 0 -0.569069
21.9961 0 -2.0993
-10.5372 0 9.08333
11.2953 0 20.9897
-5.26512 0 -52.0065
-30.4895 0 13.0915
4.34905 0 -11.7032
47.9429 0 57.1868
0 0 0
-30.839 0 3.04198
-9.19632 0 7.25687
-7.1348 0 6.57977
0.250004 0 -12.4048
5.47776 0 40.9854
7.9038 0 -44.2194
4.63851 0 0.511357
-27.6972 0 -9.38098
28.8411 0 -6.02334
-4.07076 0 0.346066
-12.2336 0 -37.6876
-2.38948 0 39.2797
0.738593 0 -12.3391
7.50827 0 7.07671
6.10086 0 -2.34057
-8.1876 0 15.1249
0 0 0
-48.0805 0 57.9753
-0.0927079 0 -6.945
39.8187 0 -21.3558
-16.0692 0 -47.253
-8.33268 0 21.4464
12.4786 0 0.386767
-6.03718 0 -9.78099
-12.1993 0 -1.54767
-19.7881 0 -9.04751
1.93745 0 1.8269
8.58749 0 11.3761
3.60451 0 10.0543
-16.8198 0 8.99987
-32.3777 0 -21.224
18.9403 0 -37.4175
-50.1331 0 24.2187
-53.8866 0 28.845
13.7086 0 -36.7446
-14.741 0 -33.3522
-40.8274 0 23.6612
59.1347 0 -0.399886
0.390123 0 -12.2226
4.37896 0 9.3707
-19.5427 0 -13.8755
13.1842 0 50.4965
-42.738 0 67.5646
-4.17627 0 -19.4666
-30.5053 0 -15.431
-0.861928 0 27.47
38.9612 0 3.38554
-6.90994 0 -23.8509
38.4894 0 -31.3941
-73.34 0 0.284195
-57.7174 0 28.4554
20.1039 0 -66.8047
16.6619 0 -33.3125
11.6471 0 0.9765
-59.4034 0 -17.1606
3.90168 0 7.65999
-16.7163 0 42.3627
28.7016 0 -6.20908
-8.53753 0 18.9542
5.89219 0 -6.23068
17.2881 0 -1.29613
0.20888 0 39.5038
1.40769 0 1.97639
53.6025 0 -44.6795
-2.59669 0 12.8537
9.769 0 11.2301
15.895 0 11.1435
-0.339587 0 -4.4371
-9.61794 0 5.05849
-0.778248 0 -2.90662
-13.4393 0 9.75209
-2.10775 0 4.92283
62.642 0 -54.4423
8.80152 0 -5.13092
-56.2522 0 -94.5563
-32.9237 0 -26.7824
-17.555 0 -6.27067
8.08997 0 20.1588
-32.2623 0 22.2759
-155.427 0 76.4872
-8.2964 0 7.54468
5.21117 0 -29.2414
5.54731 0 30.4083
-17.1589 0 5.02606
-15.2347 0 -72.5849
-1.60633 0 -1.27084
75.8536 0 4.17812
-47.2242 0 -39.0095
4.16616 0 -20.1073
-36.0964 0 4.63837
2.11572 0 28.0935
29.7179 0 -13.1152
4.46535 0 -20.1416
43.0264 0 67.8008
-13.395 0 50.3971
19.2082 0 -14.2634
-4.35317 0 9.36066
-0.348274 0 -12.2477
-80.7065 0 -51.2434
99.8549 0 30.7447
-11.4394 0 25.3965
14.1344 0 9.39592
88.286 0 -71.2411
-14.2593 0 -53.4255
-21.6648 0 6.02957
10.5523 0 46.1058
-20.6115 0 -45.3881
-56.255 0 -21.6143
-16.38 0 -8.0266
34.7843 0 28.2694
22.3784 0 -9.50256
-11.7347 0 -25.4535
-22.7674 0 47.1457
26.0807 0 -28.0542
-21.6791 0 -5.92618
-19.4895 0 -20.1567
43.8081 0 -2.62874
-5.42474 0 1.35305
-33.0413 0 49.6694
-3.54251 0 1.6961
3.14447 0 8.44572
16.9517 0 63.2436
11.6088 0 -73.777
-37.0503 0 -16.6526
119.164 0 -13.3353
-2.81959 0 6.9414
-15.6173 0 -29.2934
-4.90563 0 -13.0582
3.5269 0 -10.8813
20.8333 0 9.42768
-60.7219 0 -12.3245
61.9585 0 34.0484
44.2379 0 91.8837
15.8569 0 4.81472
-0.271946 0 3.34575
11.4437 0 15.3307
9.93629 0 -3.01187
60.8238 0 46.6023
-2.22435 0 -1.48212
32.8893 0 -25.6171
-11.3551 0 14.5916
-0.386365 0 7.95297
-12.7122 0 -53.5381
1.2196 0 10.3665
9.76645 0 -25.811
-26.3947 0 -14.9358
-26.4543 0 22.4956
14.8277 0 -9.39181
70.8061 0 -27.587
17.3823 0 -36.5337
-18.7339 0 48.9152
29.4495 0 3.99803
13.896 0 -53.1395
-88.0952 0 -72.3417
-14.5781 0 9.34624
11.5561 0 25.4128
-99.8255 0 30.3226
80.7718 0 -51.3347
25.208 0 1.05613
-21.4003 0 1.42386
-2.03037 0 -61.2493
-48.4687 0 -36.3432
101.548 0 -58.569
-14.8703 0 68.5276
90.9086 0 -59.8763
-1.60186 0 -49.3206
20.0354 0 24.2546
55.4082 0 7.43628
-41.7583 0 24.4047
38.763 0 -43.7563
-0.322716 0 4.74335
-4.32315 0 -12.1419
2.22263 0 19.2177
21.6044 0 67.2048
4.74857 0 -69.9773
26.033 0 5.351
-4.52966 0 -7.95586
1.29643 0 -8.23972
46.9308 0 -13.1485
24.6661 0 -18.6598
-3.57137 0 -23.6326
23.8777 0 5.09068
-124.917 0 15.2934
-20.2984 0 -19.9716
-18.9818 0 -97.2537
71.2435 0 39.0892
-10.9271 0 32.238
1.98766 0 -1.14687
-2.00497 0 -1.17005
-54.7504 0 36.1629
7.07161 0 -17.3109
-26.3139 0 -19.4071
27.5451 0 -1.75384
-6.45203 0 18.4742
-2.44995 0 12.3895
-9.28016 0 5.42105
-12.4551 0 8.80607
-77.8324 0 -12.3487
3.81118 0 -20.9406
-12.7576 0 -26.3291
2.75663 0 -22.6678
7.47889 0 35.1586
-7.75705 0 -39.3575
11.5045 0 44.6611
1.19195 0 -9.74207
5.48646 0 6.11777
-37.3285 0 -23.2837
66.4316 0 48.1339
-57.5825 0 25.8412
-19.1586 0 19.3574
0.819978 0 -45.5774
-79.8859 0 -52.2222
14.2605 0 68.5036
-103.723 0 -62.4201
48.0474 0 -37.7572
2.04503 0 -61.6979
21.4859 0 1.72661
-25.1999 0 1.13788
-15.9179 0 -8.15519
15.9847 0 38.3241
-9.48807 0 84.2902
-8.92031 0 8.17729
-95.2561 0 114.359
0.174999 0 -3.52446
-60.1225 0 38.4933
-23.5738 0 0.563437
2.68915 0 38.0455
-30.6521 0 -106.492
-24.8564 0 47.4066
45.7688 0 -18.7214
-63.422 0 -3.08349
18.2126 0 9.51991
-14.1039 0 11.3182
-5.1039 0 54.2461
6.64199 0 2.0304
4.02904 0 8.04462
-81.7125 0 -35.2978
-1.38321 0 2.979
-59.5567 0 17.0465
-9.86688 0 -35.2018
-53.1737 0 -66.664
27.8682 0 19.0824
11.0034 0 27.9777
-0.278106 0 33.2178
-3.55683 0 9.14706
-63.2101 0 23.4353
-5.43048 0 -5.48042
-11.2284 0 2.58452
11.9094 0 1.86659
14.1732 0 -4.8149
-9.06465 0 7.55337
-61.7902 0 115.958
60.9815 0 -105.648
-11.5454 0 7.37244
37.3721 0 -53.1562
-11.0351 0 16.2075
8.78805 0 -39.7277
27.7826 0 -7.00648
3.61053 0 -27.8741
-22.3726 0 25.9762
-8.06798 0 -30.8118
6.47794 0 24.0519
-3.05635 0 -9.07573
11.3444 0 -9.47899
-18.1183 0 6.77679
-11.3018 0 -10.8644
-69.7476 0 -46.7362
28.76 0 40.9565
33.8818 0 -123.418
-8.91622 0 37.5506
26.3214 0 3.45214
52.655 0 19.2504
-4.94079 0 1.74072
98.1332 0 115.766
10.5786 0 8.89335
8.59287 0 83.7999
-16.248 0 38.3083
16.0761 0 -8.67197
25.4977 0 6.86066
22.5693 0 -33.552
-39.5204 0 -10.9139
27.779 0 -14.4962
-9.11991 0 -14.6098
10.1842 0 7.44882
19.3467 0 7.12086
11.873 0 21.5849
-4.43568 0 -8.64663
48.1649 0 99.4963
-30.0294 0 19.3009
-28.166 0 51.7079
1.81788 0 -15.8692
46.1157 0 -44.5997
5.38509 0 -20.4561
-10.4971 0 4.47541
-94.9455 0 -27.8392
-3.16138 0 27.944
78.761 0 16.7344
-3.93091 0 0.310016
75.2061 0 -9.90661
-11.4389 0 18.1213
19.0463 0 78.5066
-2.50481 0 -14.4068
7.58102 0 -8.94663
10.6099 0 46.3115
71.0519 0 -120.774
-16.6826 0 -3.27449
-57.9351 0 83.9299
-5.49291 0 10.8951
-21.4464 0 76.8553
4.53239 0 -16.4485
14.8592 0 20.603
37.3427 0 -84.5794
-17.5422 0 -19.6504
17.5933 0 12.5409
5.49189 0 3.9635
-3.02788 0 -7.38415
-8.52674 0 -6.41651
-23.5564 0 1.54019
-6.7906 0 25.6973
1.7407 0 0.416368
-4.31712 0 -159.608
-44.3218 0 -28.7219
10.7738 0 43.4305
-2.52966 0 -15.5192
18.7692 0 14.6433
-7.75152 0 -17.2032
24.5959 0 30.2134
24.6594 0 18.3875
-62.3341 0 110.62
19.6954 0 -2.49644
-9.91825 0 17.1806
-19.8347 0 19.6326
-17.4579 0 3.95894
9.70468 0 -14.4603
-29.5129 0 -14.6917
40.977 0 -8.92977
-21.8344 0 -33.6934
-25.5612 0 6.82953
-68.561 0 -2.87802
54.6287 0 29.3328
-11.6608 0 7.95122
16.3918 0 -4.46148
16.5084 0 2.57355
-27.4024 0 -13.5393
-108.056 0 -22.8104
107.001 0 14.2054
-22.9688 0 12.56
7.20736 0 -7.34697
11.8927 0 23.4489
-10.8834 0 -32.3578
-14.5641 0 -11.7459
28.9574 0 6.35535
-17.5781 0 4.17177
63.3889 0 16.265
4.45753 0 -4.65775
-1.99596 0 -10.1673
-5.54718 0 16.1492
8.78401 0 -23.8263
-99.0268 0 -76.5895
-9.78352 0 48.4946
13.7255 0 1.15766
8.22256 0 -0.164768
1.24302 0 19.0762
6.56263 0 1.20433
-21.1863 0 -11.8474
13.7929 0 12.6775
-17.6726 0 12.1779
-6.79573 0 -11.3987
-6.26021 0 4.14494
-0.214393 0 20.6577
-11.3096 0 16.7555
-19.5092 0 2.30486
20.9852 0 9.96464
3.98177 0 -11.3569
3.00441 0 4.31826
-1.50701 0 -9.68996
3.74115 0 47.4359
3.08088 0 -9.92856
-8.04596 0 40.1403
11.9874 0 -10.5806
19.4177 0 163.582
33.7446 0 28.9661
30.1331 0 57.6656
22.1012 0 2.65352
-23.978 0 4.49157
12.3192 0 -4.69389
7.63436 0 -14.2223
-13.4614 0 22.4251
-3.09946 0 -10.8603
20.2611 0 10.5174
-103.172 0 15.9626
105.094 0 -23.692
33.0018 0 -11.0685
-15.392 0 2.07644
-16.4796 0 -4.69362
10.693 0 8.74784
-53.4626 0 28.6278
68.0249 0 -2.74362
24.1998 0 -0.1436
-24.4458 0 -15.2225
-11.1215 0 2.26865
6.60176 0 -3.25956
4.7051 0 -3.60303
-11.3676 0 -21.9883
2.47443 0 18.4529
-18.5225 0 -10.577
-20.7208 0 -1.51783
42.2549 0 -25.9849
77.5641 0 -49.713
6.09742 0 -1.28563
-17.0702 0 -0.481644
-13.6751 0 -27.9834
3.91997 0 -20.3776
-86.6829 0 3.62735
4.03172 0 -19.1486
-0.902566 0 19.3927
16.9812 0 -17.2908
0.970185 0 -7.64803
-11.1763 0 -3.92208
-4.44722 0 -11.4227
-9.4755 0 -12.5534
-8.06407 0 -15.251
1.32126 0 -0.663852
14.382 0 -6.31461
23.9541 0 -19.8553
-21.524 0 9.17272
15.7583 0 9.91525
8.31085 0 16.9213
-22.0205 0 -43.0407
-38.6496 0 27.9172
39.2104 0 -5.7395
-4.82588 0 5.71836
11.9203 0 -18.4222
-45.3504 0 -81.2666
-42.9075 0 50.9411
-0.463688 0 -20.703
11.8039 0 7.91328
11.9476 0 -2.82455
1.17233 0 25.0454
8.42266 0 -12.9676
13.5323 0 -6.29205
-13.5349 0 -18.4728
8.99533 0 10.9679
-21.3355 0 -53.4591
7.2303 0 -14.169
24.279 0 -28.3965
-7.71502 0 1.47637
-73.4397 0 -59.6565
-15.0479 0 -18.9072
3.84623 0 2.30928
19.3897 0 -1.55658
0.414015 0 17.978
-2.02429 0 -6.15636
-3.22259 0 -5.86916
-6.70546 0 -2.98267
8.08816 0 1.99793
24.7334 0 -13.6509
-24.0001 0 -0.217726
7.76707 0 -8.45528
6.01831 0 -15.0926
10.1106 0 14.2759
-4.7928 0 9.80161
6.01329 0 -6.86666
5.57395 0 9.05008
2.57503 0 24.0773
-13.211 0 1.28634
-15.7247 0 29.4133
39.4942 0 -66.4915
-38.1064 0 55.6962
-0.656447 0 2.40571
-27.4999 0 -15.2958
38.4899 0 9.16221
-37.412 0 -6.17118
-10.612 0 10.1275
-45.0706 0 -8.81446
-11.2831 0 -22.6251
74.0929 0 18.6389
5.99688 0 4.63145
2.38354 0 7.53808
1.97982 0 15.8249
95.9268 0 59.526
-3.93435 0 2.32356
4.03524 0 17.0728
-8.53248 0 43.6326
-47.2936 0 -52.6399
7.69484 0 -2.55879
-1.08362 0 -12.2772
12.4273 0 3.61103
14.2006 0 7.34683
-43.0966 0 -7.92882
-15.5393 0 1.53885
-6.33489 0 -35.0276
-5.74208 0 21.2155
64.3922 0 81.0235
-123.916 0 4.76012
1.41866 0 -4.01347
21.0923 0 4.38881
63.876 0 -0.94646
-19.9098 0 -3.83511
8.64129 0 -2.3447
4.22576 0 16.1131
15.7859 0 10.5179
-6.02575 0 29.5639
41.7916 0 -15.3484
-34.698 0 29.1405
19.7406 0 -14.9574
5.03868 0 0.546849
44.1342 0 64.5198
-67.356 0 -44.2226
23.063 0 0.70591
13.9875 0 -3.36192
14.0513 0 15.403
-3.47436 0 6.81112
-5.62255 0 -5.5249
20.3439 0 1.68769
-9.33351 0 14.0606
-6.10419 0 -15.2823
-8.67963 0 -8.74078
-14.564 0 93.0789
15.9356 0 6.68119
-60.6539 0 -29.4132
9.85647 0 19.5648
20.4149 0 -15.3256
5.01724 0 -0.192648
19.9693 0 -2.54005
7.37867 0 4.39552
-1.00274 0 -5.94062
-0.488564 0 -6.11009
17.0391 0 -29.3647
-22.3505 0 -28.6586
60.0733 0 -12.425
-62.0538 0 -18.2586
73.6486 0 54.7548
-18.6896 0 33.5102
-2.33784 0 -19.8037
-115.406 0 -298.765
81.0878 0 21.9432
17.2034 0 7.96869
0.223913 0 -7.81775
-16.0755 0 -24.562
0.943457 0 11.2269
-9.08955 0 -13.9063
12.4824 0 -1.55333
-11.0335 0 1.95999
-39.8898 0 -1.58273
-16.6161 0 -33.474
-16.0178 0 -5.98997
-8.78701 0 5.12698
-7.19455 0 -4.7691
12.4666 0 -23.4426
59.1245 0 24.5084
14.3922 0 33.3732
12.1785 0 -26.1895
4.61845 0 2.48142
63.9802 0 -38.2165
12.6453 0 30.2372
-60.9285 0 19.1077
-3.89874 0 -24.9266
-14.7219 0 22.2849
-3.98222 0 -77.6234
-50.5077 0 -36.0091
7.39817 0 -18.354
17.5279 0 69.277
-13.8724 0 56.559
43.0039 0 -12.5015
-54.141 0 -5.36209
13.2327 0 -40.3253
-2.4516 0 -29.7592
-29.094 0 7.75804
2.56764 0 -0.253168
-9.61256 0 -6.95831
-19.2057 0 -10.9242
-26.4928 0 11.9826
-22.486 0 -16.8634
-9.77967 0 20.1874
56.0318 0 -27.6409
-15.2683 0 8.71588
9.1981 0 85.025
-20.3442 0 -73.8035
10.8616 0 -0.129005
25.5906 0 30.9993
22.7621 0 -52.5452
27.5289 0 20.7525
13.2858 0 6.17591
-52.2409 0 16.0213
35.5979 0 -31.3334
-67.755 0 -23.8067
-54.8061 0 71.4192
-23.0273 0 -24.3877
9.88584 0 15.148
-47.1855 0 -35.4173
9.59945 0 -24.1618
11.9865 0 22.3222
-78.337 0 3.87287
12.0105 0 -43.4996
-19.4384 0 6.43071
2.23636 0 -16.7345
18.5314 0 11.6579
-3.09957 0 -14.061
-79.3936 0 78.0151
54.9189 0 -71.2251
-3.41214 0 0.956411
-9.21231 0 8.66623
-12.1088 0 -7.75861
2.66751 0 16.3975
53.7921 0 18.2529
57.2226 0 54.1318
-10.6248 0 -2.36913
8.01912 0 2.2455
-17.3601 0 -6.51708
30.3668 0 11.6866
6.21476 0 5.92942
1.02697 0 -18.5918
-20.0509 0 -62.685
2.32524 0 22.7267
27.5735 0 43.7216
-1.06162 0 -17.6286
11.9823 0 -11.6966
-10.022 0 -2.03098
9.48534 0 23.015
68.5383 0 -24.5438
-48.1492 0 -60.0304
45.919 0 25.0169
5.42247 0 -6.3565
-0.900887 0 -7.46675
44.7127 0 -35.6902
5.63494 0 38.0487
8.02288 0 -22.3265
74.9413 0 53.7126
83.331 0 -42.8318
18.9247 0 7.50711
4.55461 0 -7.1233
-19.3159 0 8.21267
-14.6196 0 16.8314
-11.5707 0 -37.0226
-23.249 0 18.5256
-20.0224 0 7.62066
7.24468 0 -68.4967
17.6069 0 17.7475
-14.0196 0 -2.65382
-0.531196 0 -31.8431
-3.08387 0 26.5553
2.29616 0 -19.7216
9.60809 0 0.701346
-10.2318 0 10.2435
13.669 0 3.51758
7.95172 0 8.84874
-13.7799 0 10.1778
-2.80809 0 18.3663
-48.796 0 9.91588
28.9045 0 -5.62498
28.2256 0 58.3091
-115.579 0 -56.1434
52.9649 0 -9.25683
49.5493 0 46.1387
9.19843 0 6.52301
129.089 0 282.218
14.7411 0 -3.03254
19.5373 0 10.593
-1.13552 0 7.12432
31.2351 0 -90.3324
-15.5765 0 -16.1574
-3.43486 0 -18.2752
13.1806 0 -17.7677
-8.84402 0 12.7576
-5.48825 0 -20.7092
-7.65279 0 15.3401
-7.26642 0 -6.76113
2.68451 0 -9.03848
18.917 0 -8.53444
-36.9223 0 17.0644
8.50678 0 6.44305
8.20644 0 -0.0381606
2.79065 0 -13.9942
6.41483 0 27.1409
-0.872307 0 29.4277
-1.89147 0 -21.8954
3.09174 0 -79.7738
-16.5211 0 -4.8733
24.0586 0 -15.9753
-8.17738 0 5.69931
-19.856 0 26.4916
-38.1062 0 21.2877
13.7931 0 -4.91501
-30.6028 0 54.0713
7.42169 0 4.63605
3.39158 0 10.215
-26.8469 0 6.91064
9.56466 0 12.262
-2.73519 0 14.7085
-6.06959 0 0.675048
7.32356 0 21.4266
-9.21475 0 -2.96716
-9.14609 0 -34.0226
10.1121 0 35.6344
-0.349134 0 -32.0224
28.3025 0 -20.1391
-17.6869 0 17.4704
19.5844 0 9.28756
22.433 0 -6.03269
-2.37493 0 33.1597
-9.62444 0 4.27459
-64.8241 0 -5.38354
58.8859 0 -5.88832
-5.05743 0 -49.6918
-3.73797 0 -13.5226
-9.38527 0 52.1209
63.7425 0 -35.3732
7.91388 0 -21.3417
4.92494 0 16.5487
-15.9746 0 -18.5536
10.8748 0 -7.50471
19.2292 0 -12.3131
-0.883017 0 -5.16636
4.19951 0 7.52939
1.64695 0 -100.068
11.5885 0 3.80885
-60.2669 0 24.6892
59.4793 0 13.0712
-4.78418 0 12.757
18.9104 0 1.79986
-11.924 0 25.9855
35.8817 0 -11.4035
-15.2768 0 9.4738
-8.49299 0 -12.8775
-5.69962 0 17.4575
-0.965151 0 -3.42318
8.70626 0 -5.48869
15.1246 0 2.67665
3.80462 0 2.02984
-21.6487 0 -1.99955
3.73241 0 15.2035
-1.66916 0 -4.82732
-17.7757 0 -22.2116
15.5575 0 16.3752
-4.37996 0 -3.15894
-23.9134 0 9.52775
11.9439 0 12.0101
-33.862 0 6.4879
-11.3813 0 6.01876
-9.63661 0 -0.629915
9.35181 0 2.50123
12.4355 0 3.14916
-13.4814 0 -9.9225
2.88825 0 -42.1806
-11.5225 0 -7.49753
-13.5791 0 3.77401
12.9523 0 -22.3312
-96.8288 0 -29.549
-38.0883 0 -0.257791
18.2519 0 -17.455
-0.339742 0 -43.8516
-48.4748 0 -17.93
82.2397 0 23.2694
8.50115 0 11.0528
7.12752 0 28.1887
-20.3703 0 -3.12432
-20.085 0 6.23783
17.5964 0 7.47911
20.979 0 -44.6169
14.5485 0 -5.57813
-73.559 0 5.78526
44.0076 0 -0.624434
-16.2081 0 7.46769
-28.255 0 13.4344
77.4533 0 -90.8589
44.9291 0 35.0473
-9.69941 0 23.4847
-8.77372 0 -3.65978
-8.46204 0 6.44918
1.05268 0 -3.54138
4.9756 0 38.8394
-15.9906 0 -7.64019
-10.8844 0 5.95133
4.81283 0 -3.68763
-4.75343 0 54.1876
2.49449 0 -5.98829
-32.9704 0 -40.9115
-18.1164 0 24.1383
-14.0317 0 -39.6404
-17.573 0 106.465
-3.93213 0 13.8105
-7.38027 0 8.93086
17.5069 0 -19.3255
-15.5645 0 6.56621
0.717858 0 19.5229
7.67834 0 6.85419
-15.773 0 2.86679
-10.0283 0 6.50019
-5.49763 0 -6.83566
25.0535 0 24.6997
6.44078 0 1.77134
2.63982 0 -2.29842
0.516266 0 4.12278
-20.2179 0 10.5613
-23.7815 0 -3.23951
-2.60645 0 78.6379
12.3752 0 -8.41691
-3.56229 0 0.536889
-0.9378 0 -10.7405
-3.79253 0 17.5083
-8.34505 0 -14.4258
-26.7827 0 -29.4919
24.7794 0 -4.44947
25.7492 0 37.0355
-2.55032 0 2.75285
-1.5362 0 -13.1753