# vtk DataFile Version 3.0
SiWiRVisFile
ASCII
DATASET UNSTRUCTURED_GRID
POINTS 1600 DOUBLE
76.4897 100 72.3384
75.0093 100 72.4741
75.8434 100 73.2615
77.8856 100 72.7727
78.879 100 73.5589
80.0231 100 73.9431
80.9331 100 73.3523
81.9592 100 73.6281
82.9238 100 74.1729
83.0902 100 73.0689
92.5933 100 66.3343
91.5155 100 66.3044
92.2298 100 67.4963
89.9916 100 66.2954
83.6779 100 66.2426
90.2177 100 57.6826
91.3296 100 57.3501
90.8542 100 55.5205
86.7161 100 48.8701
93.5616 100 53.3936
107.311 100 31.3217
107.497 100 29.5361
106.604 100 28.8811
107.504 100 28.1413
105.733 100 29.9407
112.008 100 31.0096
110.889 100 22.2447
112.492 100 21.8975
110.531 100 24.4597
111.653 100 23.8308
112.823 100 23.4468
113.566 100 24.3047
111.935 100 22.6843
113.866 100 23.2661
114.558 100 28.7558
118.478 100 29.8065
116.825 100 27.7582
117.111 100 29.5694
116.332 100 30.3791
116.496 100 31.4476
132.203 100 54.3707
137.776 100 48.8701
131.272 100 55.7656
133.11 100 57.2679
135.197 100 56.4344
135.387 100 68.522
134.061 100 65.7204
134.341 100 68.1793
132.838 100 65.7898
133.548 100 66.644
141.053 100 72.9484
140.862 100 74.3347
141.849 100 73.929
142.834 100 73.4925
144.689 100 73.7994
145.761 100 73.34
146.874 100 72.9376
148.909 100 73.3811
149.766 100 72.2061
147.961 100 72.6233
74.1022 100 73.1411
74.9642 100 73.9228
76.8982 100 73.5023
77.9466 100 74.0898
79.2327 100 74.7184
81.15 100 74.3986
82.1598 100 74.9144
83.1189 100 75.3258
84.4862 100 74.6397
85.3059 100 75.2954
86.81 100 75.2935
92.3034 100 65.3144
91.1102 100 67.3497
91.2419 100 63.1876
90.9534 100 58.8733
91.1717 100 64.8822
92.0413 100 56.598
91.9796 100 55.536
93.0937 100 55.4114
96.4032 100 52.9991
106.734 100 30.3941
96.1402 100 37.7827
106.855 100 41.7643
109.241 100 27.6047
108.564 100 28.729
111.785 100 29.9039
110.755 100 29.1912
109.822 100 28.5358
106.57 100 19.0344
111.451 100 25.1918
112.517 100 24.8332
118.303 100 19.1062
113.457 100 26.5435
115.568 100 27.8258
115.285 100 29.6373
116.085 100 28.8188
114.726 100 26.2339
119.043 100 41.6287
128.352 100 37.7827
117.368 100 30.7262
127.406 100 54.1156
129.442 100 54.685
132.112 100 53.1839
134.05 100 56.7427
133.409 100 64.5458
133.837 100 58.0642
132.08 100 61.9065
134.523 100 67.078
131.911 100 65.1558
138.441 100 75.6297
139.561 100 75.2851
140.715 100 75.4599
141.675 100 75.0189
142.636 100 74.6957
143.581 100 74.2098
145.585 100 74.4648
146.63 100 74.0557
147.716 100 73.695
149.679 100 74.1593
150.435 100 73.3415
73.9711 100 74.3718
75.0729 100 74.9834
76.0802 100 74.2716
77.027 100 74.8839
78.2584 100 75.163
80.1306 100 75.1894
81.1781 100 75.5641
82.154 100 76.0546
83.1731 100 76.553
84.3351 100 75.782
86.1501 100 76.3948
85.799 100 77.507
88.1998 100 77.4844
92.0582 100 64.1541
89.9524 100 61.9367
93.0879 100 61.0928
92.6817 100 57.5826
93.2113 100 56.5755
94.1209 100 56.1084
95.5616 100 53.7386
97.4263 100 52.2759
104.475 100 42.4561
105.467 100 42.0344
106.515 100 42.9826
97.9225 100 39.545
107.734 100 42.3233
107.461 100 40.8345
105.987 100 40.8082
110.988 100 26.2557
112.72 100 27.4891
112.387 100 25.8729
113.468 100 25.4142
122.161 100 41.2709
118.263 100 39.8825
117.654 100 41.5756
120.852 100 42.215
118.709 100 43.1142
119.703 100 42.5558
120.706 100 43.3482
126.571 100 53.1752
131.063 100 54.7395
129.929 100 55.6632
133.26 100 55.9723
132.193 100 56.3754
132.589 100 59.684
132.152 100 60.7175
132.068 100 64.1028
136.947 100 76.1885
137.947 100 76.7954
139 100 76.5574
140.202 100 76.4365
141.469 100 76.163
142.51 100 75.7706
143.562 100 75.3339
144.535 100 74.9148
146.341 100 75.3022
147.431 100 74.7994
148.583 100 74.4147
149.376 100 75.1304
150.749 100 74.3937
74.1167 100 75.4056
75.2212 100 76.0642
76.088 100 75.4046
77.0899 100 75.9351
79.1593 100 75.8383
80.1834 100 76.3935
81.2437 100 76.8055
82.2921 100 77.2507
84.1363 100 76.9902
85.1492 100 76.5493
85.436 100 78.6422
86.8839 100 77.3347
87.3013 100 76.3553
92.2501 100 62.871
91.2227 100 62.0917
90.6765 100 61.1651
93.1092 100 58.5932
91.9702 100 58.5115
93.7398 100 57.6918
94.7539 100 57.0118
95.0782 100 54.6815
97.7373 100 53.6957
104.517 100 41.3546
105.152 100 46.6174
105.46 100 43.2204
105.744 100 44.4264
108.27 100 44.6641
110.404 100 44.6545
108.504 100 41.4174
112.013 100 28.9178
113.73 100 27.6657
114.854 100 39.5007
115.436 100 43.2061
116.532 100 43.3358
117.448 100 43.751
119.567 100 43.6973
118.404 100 44.229
119.634 100 40.6321
126.296 100 54.4129
128.869 100 55.8304
129.727 100 56.667
132.152 100 57.547
132.274 100 58.6385
131.424 100 59.7234
130.969 100 60.6755
131.373 100 62.7168
131.042 100 63.8027
137.474 100 75.2886
137.982 100 77.9229
139.041 100 77.6152
140.226 100 77.5349
141.237 100 77.3089
142.369 100 76.9145
143.449 100 76.6144
144.398 100 76.1611
145.308 100 75.6974
147.27 100 75.8806
148.307 100 75.4568
149.216 100 76.1733
150.37 100 75.4488
74.107 100 76.596
75.1354 100 77.2348
76.1445 100 76.5342
78.1174 100 76.5419
79.0303 100 77.1982
80.1395 100 77.6656
81.1641 100 78.0438
82.1804 100 78.4066
83.2117 100 77.6903
84.2698 100 78.0062
85.3143 100 79.8816
88.7326 100 78.3883
88.3753 100 76.4498
95.1951 100 60.5419
91.9514 100 61.2232
93.5059 100 59.6392
95.8415 100 59.291
95.5104 100 58.2576
95.1711 100 55.8868
96.3924 100 55.3657
96.6242 100 54.089
103.075 100 51.0228
105.062 100 45.3621
107.222 100 45.3358
107.157 100 44.298
108.211 100 45.7585
109.299 100 44.9404
110.44 100 45.8645
107.648 100 43.3257
110.872 100 30.4667
110.212 100 31.4869
116.366 100 42.2659
113.044 100 45.0054
114.69 100 45.0338
116.198 100 44.5994
117.435 100 42.646
117.576 100 44.9413
117.827 100 46.1287
122.481 100 50.6012
128.387 100 53.6549
128.304 100 54.9114
128.514 100 56.784
130.938 100 57.378
131.018 100 58.7831
129.969 100 58.7646
130.236 100 63.1233
130.715 100 61.8006
136.873 100 77.2214
137.001 100 78.3641
139.636 100 79.601
139.579 100 78.5491
140.991 100 78.4295
142.081 100 77.9753
143.15 100 78.0352
144.112 100 77.4187
145.199 100 77.0472
146.203 100 76.5065
148.198 100 76.5296
149.077 100 77.2096
150.521 100 76.6568
73.831 100 77.6582
75.0685 100 78.3073
76.1941 100 77.634
77.1003 100 77.0995
78.0475 100 77.6549
79.093 100 78.3483
80.1345 100 78.772
81.2074 100 79.1054
82.2937 100 79.4717
83.1898 100 78.8963
84.4146 100 79.0684
86.4696 100 78.307
88.7462 100 79.4592
88.1681 100 75.0721
89.6735 100 75.8817
94.069 100 60.5957
96.3564 100 60.4163
97.1295 100 59.7111
96.7733 100 58.6119
96.0652 100 56.4858
97.3879 100 54.8323
99.4631 100 53.8403
104.236 100 49.5713
105.091 100 48.9942
106.106 100 45.7316
107.334 100 46.4577
108.36 100 48.4427
109.269 100 46.2332
111.827 100 44.3597
111.042 100 43.6333
114.332 100 43.0688
113.914 100 45.8333
115.628 100 45.5703
115.695 100 46.7765
116.852 100 45.7371
118.556 100 45.2857
118.824 100 46.6802
122.224 100 49.2369
124.573 100 54.9336
127.11 100 55.1513
127.802 100 55.9451
129.705 100 57.667
128.646 100 59.0556
129.107 100 60.2454
130.31 100 59.7807
135.792 100 75.8513
138.212 100 72.2282
136.206 100 79.2523
138.499 100 78.9282
140.732 100 79.4133
142.082 100 79.0261
142.799 100 80.1441
143.143 100 79.1755
144.122 100 78.5966
145.164 100 78.1815
146.156 100 77.5977
147.189 100 76.9952
148.159 100 77.7672
149.032 100 78.3726
150.125 100 77.959
72.7845 100 78.3713
73.9588 100 78.7663
76.0155 100 78.8526
77.1217 100 78.1949
78.1503 100 78.8296
78.3599 100 81.2923
80.4113 100 79.9126
81.4868 100 80.2452
82.503 100 80.6477
83.3733 100 79.9584
85.7897 100 80.9642
87.5897 100 78.4291
89.4566 100 80.4624
89.1787 100 74.6467
94.8243 100 61.5941
94.6077 100 59.6051
95.9388 100 61.4098
98.2455 100 60.1146
96.9403 100 57.5748
97.2847 100 55.9575
98.4527 100 54.6017
100.765 100 54.2788
104.173 100 50.7461
106.106 100 46.9872
109.182 100 49.1066
108.949 100 47.4536
106.454 100 50.9749
110.073 100 46.9817
105.689 100 51.8151
107.577 100 50.6193
118.564 100 52.0632
117.068 100 51.066
115.194 100 47.8909
116.329 100 52.1156
116.263 100 48.9612
116.365 100 47.7161
116.933 100 46.8183
121.299 100 50.3441
122.321 100 52.608
125.773 100 55.351
126.608 100 56.1824
128.455 100 57.887
127.561 100 58.7302
128.004 100 60.6904
129.968 100 61.0448
129.476 100 62.1863
136.436 100 74.9805
130.518 100 79.4586
137.534 100 79.3656
140.813 100 80.5892
141.642 100 80.0076
142.64 100 81.3331
144.028 100 79.8815
144.974 100 79.4432
145.941 100 80.0398
146.044 100 78.8563
147.153 100 78.2576
148.072 100 78.8556
150.049 100 79.1459
151.122 100 78.5864
72.9305 100 79.4819
74.0064 100 80.0277
74.8133 100 79.4181
76.0387 100 79.8661
77.0613 100 79.3258
77.2058 100 80.3523
78.4267 100 79.9798
80.6062 100 80.9266
81.4826 100 81.4747
82.7614 100 81.8498
84.0212 100 81.5981
85.044 100 82.2703
86.3085 100 79.4492
86.4064 100 82.1197
85.7186 100 83.2924
90.336 100 79.925
95.9825 100 63.5439
97.4249 100 60.9715
99.1853 100 58.1557
98.1145 100 58.6295
98.6126 100 56.9842
98.5702 100 55.8545
104.633 100 51.9395
105.356 100 47.785
107.642 100 47.4929
108.144 100 49.6194
107.23 100 49.0183
105.163 100 52.8842
106.325 100 52.6602
108.194 100 53.7503
117.388 100 52.161
119.849 100 52.6671
120.536 100 53.4853
117.313 100 49.4223
116.469 100 50.1859
117.264 100 48.2478
117.963 100 47.4428
121.637 100 51.5171
124.972 100 56.1167
127.346 100 57.03
126.17 100 58.1698
126.322 100 59.2983
127.182 100 59.898
128.921 100 61.3488
131.354 100 78.6334
139.601 100 82.269
139.523 100 80.7615
138.646 100 80.1087
140.304 100 81.4733
141.092 100 82.7565
141.436 100 81.5258
143.836 100 81.2181
145.139 100 82.0033
144.988 100 80.6084
146.91 100 80.6397
147.003 100 79.4071
147.958 100 80.0212
148.967 100 79.6076
149.953 100 80.1712
150.946 100 79.7524
73.05 100 80.7389
74.1241 100 81.1315
75.192 100 80.5877
76.2427 100 80.9893
77.0026 100 82.8344
74.9073 100 84.2067
77.2596 100 81.5628
79.5414 100 81.4946
80.4965 100 82.0224
79.5934 100 82.6179
81.9785 100 82.528
82.3017 100 83.6347
83.2602 100 82.7583
84.5015 100 83.5023
86.8268 100 83.2044
89.9573 100 78.4432
97.0305 100 63.3025
97.1861 100 61.9969
99.0538 100 59.2846
101.257 100 58.5607
[...]
POINT_DATA 1600
SCALARS mass double
LOOKUP_TABLE default
1
1
1
1
1
1
1
1
1
1
1
1
1
1
1
1
1
1
1
1
1
1
1
1
1
1
1
1
1
1
1
1
1
1
1
1
1
1
1
1
1
1
1
1
1
1
1
1
1
1
1
1
1
1
1
1
1
1
1
1
1
1
1
1
1
1
1
1
1
1
1
1
1
1
1
1
1
1
1
1
1
1
1
1
1
1
1
1
1
1
1
1
1
1
1
1
1
1
1
1
1
1
1
1
1
1
1
1
1
1
1
1
1
1
1
1
1
1
1
1
1
1
1
1
1
1
1
1
1
1
1
1
1
1
1
1
1
1
1
1
1
1
1
1
1
1
1
1
1
1
1
1
1
1
1
1
1
1
1
1
1
1
1
1
1
1
1
1
1
1
1
1
1
1
1
1
1
1
1
1
1
1
1
1
1
1
1
1
1
1
1
1
1
1
1
1
1
1
1
1
1
1
1
1
1
1
1
1
1
1
1
1
1
1
1
1
1
1
1
1
1
1
1
1
1
1
1
1
1
1
1
1
1
1
1
1
1
1
1
1
1
1
1
1
1
1
1
1
1
1
1
1
1
1
1
1
1
1
1
1
1
1
1
1
1
1
1
1
1
1
1
1
1
1
1
1
1
1
1
1
1
1
1
1
1
1
1
1
1
1
1
1
1
1
1
1
1
1
1
1
1
1
1
1
1
1
1
1
1
1
1
1
1
1
1
1
1
1
1
1
1
1
1
1
1
1
1
1
1
1
1
1
1
1
1
1
1
1
1
1
1
1
1
1
1
1
1
1
1
1
1
1
1
1
1
1
1
1
1
1
1
1
1
1
1
1
1
1
1
1
1
1
1
1
1
1
1
1
1
1
1
1
1
1
1
1
1
1
1
1
1
1
1
1
1
1
1
1
1
1
1
1
1
1
1
1
1
1
1
1
1
1
1
1
1
1
1
1
1
1
1
1
1
1
1
1
1
1
1
1
1
1
1
1
1
1
1
1
1
1
1
1
1
1
1
1
1
1
1
1
1
1
1
1
1
1
1
1
1
1
1
1
1
1
1
1
1
1
1
1
1
1
1
1
1
1
1
1
1
1
1
1
1
1
1
1
1
1
1
1
1
1
1
1
1
1
1
1
1
1
1
1
1
1
1
1
1
1
1
1
1
1
1
1
1
1
1
1
1
1
1
1
1
1
1
1
1
1
1
1
1
1
1
1
1
1
1
1
1
1
1
1
1
1
1
1
1
1
1
1
1
1
1
1
1
1
1
1
1
1
1
1
1
1
1
1
1
1
1
1
1
1
1
1
1
1
1
1
1
1
1
1
1
1
1
1
1
1
1
1
1
1
1
1
1
1
1
1
1
1
1
1
1
1
1
1
1
1
1
1
1
1
1
1
1
1
1
1
1
1
1
1
1
1
1
1
1
1
1
1
1
1
1
1
1
1
1
1
1
1
1
1
1
1
1
1
1
1
1
1
1
1
1
1
1
1
1
1
1
1
1
1
1
1
1
1
1
1
1
1
1
1
1
1
1
1
1
1
1
1
1
1
1
1
1
1
1
1
1
1
1
1
1
1
1
1
1
1
1
1
1
1
1
1
1
1
1
1
1
1
1
1
1
1
1
1
1
1
1
1
1
1
1
1
1
1
1
1
1
1
1
1
1
1
1
1
1
1
1
1
1
1
1
1
1
1
1
1
1
1
1
1
1
1
1
1
1
1
1
1
1
1
1
1
1
1
1
1
1
1
1
1
1
1
1
1
1
1
1
1
1
1
1
1
1
1
1
1
1
1
1
1
1
1
1
1
1
1
1
1
1
1
1
1
1
1
1
1
1
1
1
1
1
1
1
1
1
1
1
1
1
1
1
1
1
1
1
1
1
1
1
1
1
1
1
1
1
1
1
1
1
1
1
1
1
1
1
1
1
1
1
1
1
1
1
1
1
1
1
1
1
1
1
1
1
1
1
1
1
1
1
1
1
1
1
1
1
1
1
1
1
1
1
1
1
1
1
1
1
1
1
1
1
1
1
1
1
1
1
1
1
1
1
1
1
1
1
1
1
1
1
1
1
1
1
1
1
1
1
1
1
1
1
1
1
1
1
1
1
1
1
1
1
1
1
1
1
1
1
1
1
1
1
1
1
1
1
1
1
1
1
1
1
1
1
1
1
1
1
1
1
1
1
1
1
1
1
1
1
1
1
1
1
1
1
1
1
1
1
1
1
1
1
1
1
1
1
1
1
1
1
1
1
1
1
1
1
1
1
1
1
1
1
1
1
1
1
1
1
1
1
1
1
1
1
1
1
1
1
1
1
1
1
1
1
1
1
1
1
1
1
1
1
1
1
1
1
1
1
1
1
1
1
1
1
1
1
1
1
1
1
1
1
1
1
1
1
1
1
1
1
1
1
1
1
1
1
1
1
1
1
1
1
1
1
1
1
1
1
1
1
1
1
1
1
1
1
1
1
1
1
1
1
1
1
1
1
1
1
1
1
1
1
1
1
1
1
1
1
1
1
1
1
1
1
1
1
1
1
1
1
1
1
1
1
1
1
1
1
1
1
1
1
1
1
1
1
1
1
1
1
1
1
1
1
1
1
1
1
1
1
1
1
1
1
1
1
1
1
1
1
1
1
1
1
1
1
1
1
1
1
1
1
1
1
1
1
1
1
1
1
1
1
1
1
1
1
1
1
1
1
1
1
1
1
1
1
1
1
1
1
1
1
1
1
1
1
1
1
1
1
1
1
1
1
1
1
1
1
1
1
1
1
1
1
1
1
1
1
1
1
1
1
1
1
1
1
1
1
1
1
1
1
1
1
1
1
1
1
1
1
1
1
1
1
1
1
1
1
1
1
1
1
1
1
1
1
1
1
1
1
1
1
1
1
1
1
1
1
1
1
1
1
1
1
1
1
1
1
1
1
1
1
1
1
1
1
1
1
1
1
1
1
1
1
1
1
1
1
1
1
1
1
1
1
1
1
1
1
1
1
1
1
1
1
1
1
1
1
1
1
1
1
1
1
1
1
1
1
1
1
1
1
1
1
1
1
1
1
1
1
1
1
1
1
1
1
1
1
1
1
1
1
1
1
1
1
1
1
1
1
1
1
1
1
1
1
1
1
1
1
1
1
1
1
1
1
1
1
1
1
1
1
1
1
1
1
1
1
1
1
1
1
1
1
1
1
1
1
1
1
1
1
1
1
1
1
1
1
1
1
1
1
1
1
1
1
1
1
1
1
1
1
1
1
1
1
1
1
1
1
1
1
1
1
1
1
1
1
1
1
1
1
1
1
1
1
1
1
1
1
1
1
1
1
1
1
1
1
1
1
1
1
1
1
1
1
1
1
1
1
1
1
1
1
1
1
1
1
1
1
1
1
1
1
1
1
1
1
1
1
1
1
1
1
1
1
1
1
1
1
1
1
1
1
1
1
1
1
1
1
1
1
1
1
1
1
1
1
1
1
1
1
1
1
1
1
1
1
1
1
1
1
1
1
1
1
1
1
1
1
1
1
1
1
1
1
1
1
1
1
1
1
1
1
1
1
1
1
1
1
1
1
1
1
1
1
1
1
1
1
1
1
1
1
1
1
1
1
1
1
1
1
1
1
1
1
1
1
1
VECTORS force double
3.28534 0 16.3805
9.71368 0 12.1439
-28.1193 0 -65.1924
-6.7634 0 24.4035
23.9405 0 -0.50271
-7.96184 0 19.2879
-21.8036 0 -39.1151
37.8049 0 12.0945
26.809 0 -4.58333
-11.0279 0 5.22482
22.5476 0 42.9663
-14.1286 0 -9.67854
-2.71149 0 -19.3083
9.95278 0 2.25631
0 0 0
13.6214 0 4.69886
-32.9997 0 57.3592
4.3569 0 4.27623
0 0 0
1.36553 0 1.44534
5.70391 0 7.34913
6.51089 0 -5.06126
-2.0792 0 4.12991
5.5053 0 19.1316
0.491917 0 -10.48
-12.7408 0 -7.2403
7.2065 0 2.96645
130.745 0 -180.911
19.1684 0 1.35542
10.2357 0 7.66462
-51.7699 0 10.6119
-16.9248 0 17.1367
-130.046 0 202.447
35.1947 0 -22.4104
9.30837 0 -10.0053
-14.5694 0 3.22142
-18.4833 0 11.8395
-1.39003 0 3.84659
-22.9686 0 -32.3432
4.52291 0 14.4559
-12.2183 0 -2.7889
0 0 0
-5.98589 0 42.8055
79.804 0 -55.2322
-11.6754 0 3.08523
5.79934 0 -0.074015
2.71486 0 -32.3206
-8.71382 0 -2.82939
13.0005 0 -13.0819
-38.9678 0 24.4111
8.09801 0 18.6785
-47.7165 0 -10.1629
-3.72531 0 -20.7721
-26.483 0 -34.486
-3.96289 0 2.34711
2.79133 0 6.59572
-5.77203 0 12.0216
-14.3181 0 -29.4812
-0.0249762 0 16.4494
9.50904 0 2.29806
8.37605 0 18.0901
6.34443 0 -34.305
32.0361 0 1.18237
-33.8948 0 6.00123
-71.2623 0 -62.0234
-11.3008 0 40.3872
-78.4082 0 -1.23853
48.8039 0 32.0228
-42.1584 0 -17.5711
55.2063 0 39.8242
1.23799 0 18.3871
-29.4047 0 -35.7762
-0.34648 0 -4.35915
-27.4059 0 29.839
-20.0281 0 -5.22573
16.4924 0 5.97381
56.5333 0 -8.84149
0.128905 0 -25.3522
9.5799 0 18.765
14.5935 0 -6.55718
5.18186 0 -16.3108
0 0 0
-61.0087 0 -17.3192
-11.2781 0 2.38218
-1.73778 0 -10.2479
-11.9983 0 75.4892
18.0876 0 13.704
-2.83134 0 12.3529
0 0 0
-0.959775 0 -4.06889
5.11977 0 -64.4765
0 0 0
-5.05597 0 3.38238
2.15713 0 4.852
12.5987 0 -1.98804
8.4437 0 6.2925
-16.7345 0 2.72586
-3.77361 0 2.36258
0 0 0
11.7268 0 -9.85195
-14.2627 0 -9.58767
-19.6779 0 -0.734852
0.0263511 0 11.6558
28.8798 0 2.08617
-10.1745 0 16.655
9.29202 0 4.08573
2.39888 0 -29.4759
23.5787 0 4.15167
-2.03797 0 24.3849
60.6608 0 21.2712
4.77392 0 20.0436
-81.0614 0 -37.9935
-33.491 0 49.199
69.9963 0 -35.5911
85.0224 0 31.7248
-2.53183 0 12.8855
-4.72665 0 -2.09712
2.50301 0 12.5409
21.0064 0 -68.1721
-12.2589 0 -18.0606
-4.68399 0 -48.5088
37.7302 0 -18.5508
-3.40968 0 62.5514
34.2566 0 -62.5558
-38.3851 0 20.3734
79.3748 0 38.5047
-7.27609 0 0.507562
15.641 0 12.4687
-27.8615 0 -27.5699
-32.6995 0 12.8983
102.805 0 -13.6538
-48.6897 0 -38.9363
-32.617 0 0.0271331
-8.38877 0 -6.18949
-9.8395 0 27.6084
-9.21054 0 -0.128651
-50.2322 0 -18.0316
-74.3076 0 40.5836
33.0189 0 -40.6851
14.6974 0 -27.3975
-8.90116 0 14.6977
-7.60861 0 22.0449
29.4763 0 -8.02468
32.5333 0 -13.3565
0 0 0
49.0704 0 -87.4001
5.88835 0 7.80742
5.83628 0 20.7899
10.2311 0 -10.1267
-67.6325 0 -21.5695
1.91674 0 45.9286
-2.93905 0 12.0434
-3.02793 0 2.18422
3.87059 0 5.04793
6.81721 0 -7.15402
-10.8637 0 5.47076
-60.0965 0 -32.053
11.7634 0 8.19254
-19.8813 0 -9.10068
6.9472 0 22.0175
-6.36133 0 -43.436
54.6397 0 -68.1624
-11.399 0 8.57161
14.7067 0 20.3796
-7.46222 0 10.2501
-20.7316 0 1.01439
34.4951 0 -22.5968
-30.2557 0 -18.947
-22.2521 0 -4.07479
41.3233 0 -28.1403
-3.41043 0 -4.8467
40.0195 0 53.5523
12.0342 0 27.0851
-28.3073 0 31.3263
20.0049 0 -15.1555
6.04053 0 -12.7111
3.91744 0 -12.4671
-31.1295 0 -17.3498
-43.1225 0 45.4843
6.93923 0 12.5546
-23.2413 0 81.6338
-78.9468 0 2.31603
0.330768 0 6.43659
15.6589 0 46.597
2.86467 0 14.2069
-2.45499 0 -4.82338
1.08532 0 -0.706306
-85.6259 0 -35.0626
13.1224 0 -62.8079
-81.5013 0 9.5082
-8.25814 0 4.51371
21.4718 0 -6.22073
-12.4387 0 -32.3339
22.4958 0 -10.0292
10.6242 0 11.7365
25.1981 0 -42.0363
-4.88216 0 13.3775
23.7152 0 -23.8299
39.2415 0 -22.6998
4.69767 0 3.13029
-7.42854 0 44.7649
-13.0597 0 10.5012
12.005 0 -2.88152
-60.3509 0 -36.337
-21.9835 0 -2.60835
7.06292 0 0.734538
-47.2575 0 -17.3636
7.17623 0 2.97588
-19.2562 0 3.87729
11.2905 0 -92.6564
78.263 0 11.2231
0 0 0
7.40119 0 -3.08063
-86.9151 0 -17.2963
78.1077 0 48.9834
45.2825 0 27.1427
37.9975 0 -34.5445
-7.6193 0 6.31508
12.6052 0 -34.7526
49.9399 0 -63.9731
-25.2302 0 -48.7109
-131.638 0 17.1863
-16.8932 0 1.10408
65.0604 0 36.8272
21.7041 0 33.9739
-25.7554 0 24.5264
7.191 0 15.6735
-26.8538 0 -56.0063
5.05645 0 -8.28326
0.394141 0 14.0666
-67.0591 0 35.7705
42.7739 0 -38.6464
-8.47961 0 -9.24101
-75.8205 0 -34.2377
-34.6448 0 19.0075
80.1896 0 -23.1329
-0.98078 0 22.0102
8.91794 0 9.80235
26.9373 0 -22.7748
34.6203 0 25.4137
25.1583 0 -18.3111
-2.86112 0 -38.8968
37.6678 0 21.0968
-5.46629 0 -18.5157
31.1342 0 -8.91982
-23.4938 0 -23.1462
-9.11643 0 -42.1762
16.1431 0 -25.8777
63.7272 0 44.1711
18.4919 0 57.5892
-19.0973 0 -5.06419
31.125 0 8.81088
33.1865 0 -47.054
17.499 0 -2.62427
-8.06093 0 4.41492
-9.76977 0 1.8778
9.36735 0 35.0764
3.09122 0 -17.1848
9.65763 0 -21.3052
-34.039 0 -17.639
-12.4446 0 -6.20483
5.41049 0 -1.07828
1.95069 0 4.85643
-17.4525 0 42.2477
-11.9264 0 -41.0345
32.6081 0 16.9055
28.0205 0 27.3829
-20.014 0 -3.72632
-11.6557 0 95.9278
-15.5854 0 13.9375
8.11485 0 -10.7217
-0.55624 0 -9.16882
3.36746 0 3.08524
-11.2565 0 -12.8493
14.6989 0 -3.88005
2.65256 0 11.2352
-51.9814 0 -27.9088
37.1952 0 19.7067
-21.7076 0 -0.835325
16.072 0 10.7006
-23.1212 0 -26.279
-17.632 0 81.5981
-3.33363 0 5.6257
18.5859 0 -68.0938
-59.2858 0 -22.4856
-21.8634 0 -45.5925
19.1898 0 25.8669
9.82705 0 74.8898
95.122 0 43.5781
-2.60024 0 42.141
19.1904 0 -26.1228
28.8544 0 -90.5551
-16.5499 0 -15.6217
19.9926 0 -5.99105
43.7005 0 44.2852
-14.4997 0 -17.1022
-8.00074 0 -37.7819
-22.2712 0 31.2047
26.1643 0 49.7099
-17.8452 0 -4.03304
4.91471 0 15.4164
-19.2707 0 15.5254
-59.1914 0 35.0882
36.0626 0 -44.2997
22.3869 0 17.5214
29.4916 0 -33.2799
11.1618 0 7.09642
15.5883 0 36.3403
-16.5465 0 49.8042
37.4327 0 -50.1122
-11.897 0 35.359
30.994 0 70.4805
9.68662 0 27.4126
-17.0424 0 19.1996
-13.8947 0 -3.26867
19.2349 0 7.81733
-29.5109 0 8.1108
39.2616 0 -30.3622
-9.88262 0 50.5687
25.7682 0 9.06271
11.1646 0 17.9454
-3.48039 0 14.2264
-96.015 0 12.4214
-73.958 0 -23.6316
12.2288 0 11.6991
-20.4909 0 -16.2886
-45.1125 0 -21.0507
-6.84896 0 -13.792
19.1026 0 23.2384
-24.6732 0 -6.74402
-2.22185 0 0.789992
-6.73996 0 -5.43371
28.2596 0 22.5009
13.9548 0 1.24691
-72.0811 0 -23.8782
54.6375 0 48.4984
-10.2816 0 5.10291
-3.06561 0 14.3431
17.1547 0 15.171
-23.431 0 0.846696
-14.2463 0 29.6238
-6.95742 0 118.762
9.18118 0 0.359044
5.24834 0 -7.00861
-4.18519 0 24.578
4.65607 0 24.624
0 0 0
6.86912 0 -13.6307
44.4784 0 -10.5757
-28.9663 0 77.8512
-22.8887 0 18.6403
-23.4241 0 67.7602
49.1176 0 -67.7817
3.94696 0 10.7422
-8.0278 0 -3.96798
17.2069 0 29.9978
4.33845 0 30.131
-50.5246 0 -37.5043
59.8859 0 16.0271
-9.29839 0 4.02706
22.47 0 -2.85227
-25.557 0 -0.430239
14.6103 0 -96.9083
-6.89245 0 43.4143
-49.0087 0 13.2193
5.00636 0 1.37675
-10.7027 0 -70.6129
-11.0172 0 -2.88487
-0.891827 0 14.5393
3.86091 0 7.84174
-1.6668 0 2.38242
-1.38847 0 -6.86052
-59.5622 0 26.1783
12.0074 0 6.9332
-6.6433 0 -9.85995
16.1731 0 -9.18658
-0.0456167 0 16.3937
-8.93224 0 0.883788
2.79813 0 -46.187
24.828 0 16.857
23.6574 0 3.94791
-10.6607 0 -0.781147
-56.8743 0 39.349
84.9649 0 -7.22579
19.1174 0 22.3053
-1.92954 0 -9.21762
10.7304 0 8.30783
-2.77654 0 1.0256
8.65233 0 -25.9973
-9.53445 0 6.02391
-30.4215 0 30.9922
13.0847 0 35.4801
19.9368 0 -9.12678
-25.1769 0 -11.8439
15.2313 0 -9.36235
-66.8992 0 9.14215
18.2797 0 -1.18586
13.9832 0 16.8606
-18.2904 0 -11.6506
-0.539219 0 22.4658
4.58719 0 -15.5006
0.617806 0 15.8429
-5.52817 0 4.01354
-4.06035 0 8.1579
-42.8127 0 -21.8645
82.4294 0 84.368
-1.26188 0 -6.49938
3.8 0 -19.8023
-31.3972 0 9.23692
-50.1818 0 -26.5182
89.6966 0 -21.9254
-10.6994 0 -36.6701
-49.7524 0 26.0896
51.5673 0 -36.1515
16.2084 0 -6.44449
-1.2814 0 -1.40501
-28.1641 0 -9.60753
-15.7355 0 45.6371
-17.1071 0 -92.6249
-21.647 0 10.0746
23.5297 0 10.5601
-85.1387 0 47.5162
116.639 0 -37.9589
11.2609 0 90.2215
-5.72292 0 -61.0163
6.79096 0 65.3382
-17.0615 0 1.23142
-49.978 0 28.0151
70.6917 0 23.9948
14.1688 0 -104.907
-6.69137 0 13.552
3.64063 0 7.72966
7.98762 0 -20.0213
-6.24023 0 10.4027
-18.8926 0 0.0560307
51.4492 0 -37.5414
-60.0378 0 -49.1007
8.6784 0 -55.0422
-12.5184 0 -4.97588
-4.27098 0 5.4506
0.77979 0 7.45869
-40.0043 0 8.19771
-41.3772 0 -21.044
6.89499 0 19.787
11.3803 0 30.1896
13.3065 0 -3.55093
-9.89475 0 -22.895
-19.5411 0 -96.7242
24.1585 0 34.4492
8.54345 0 16.4663
45.6235 0 0.520569
-17.041 0 -41.1896
8.82061 0 36.6941
-10.5312 0 -6.76614
-14.7911 0 -38.0693
19.2625 0 58.183
14.7514 0 -31.9034
45.6836 0 -3.04821
-24.7572 0 -28.7156
16.1305 0 -3.6475
-3.20097 0 -5.125
-30.6188 0 -23.5156
36.9329 0 27.5654
-81.0521 0 -84.3098
-7.10541 0 -5.06248
-13.7572 0 28.0943
-4.12804 0 -24.0971
-19.3426 0 -22.5697
13.5577 0 74.8091
-12.9155 0 -7.07878
-26.9549 0 -34.7701
-4.1907 0 -0.105021
-23.2038 0 -19.5259
-10.5756 0 6.58977
27.6434 0 -25.0521
7.58539 0 9.69806
-13.4184 0 13.861
15.4723 0 -41.5096
12.8899 0 63.7495
32.9725 0 2.74576
15.4452 0 -12.7943
10.464 0 1.72306
-25.174 0 -0.448157
7.76962 0 8.42226
-44.3772 0 -90.086
16.1397 0 9.05944
-12.3968 0 2.31715
-13.4569 0 -11.246
29.6458 0 9.77027
-42.8654 0 -12.7128
-45.8526 0 45.5642
68.411 0 -132.622
20.185 0 54.6898
-31.394 0 -51.1601
-106.76 0 -49.9868
10.0851 0 35.7536
37.5802 0 -10.3013
-1.62396 0 45.6081
-7.17246 0 5.49363
10.8648 0 2.07989
25.7117 0 -34.3964
7.14606 0 -24.0395
109.689 0 -11.4382
114.446 0 12.3715
2.3154 0 -1.63571
25.6015 0 -15.7971
25.4585 0 32.4325
-23.3137 0 -123.63
13.0157 0 98.1494
-70.3081 0 -71.2993
21.9792 0 -2.3494
4.42082 0 -22.3271
18.9015 0 -2.34732
19.1356 0 16.2479
-1.28914 0 -22.4153
-7.51044 0 0.831587
-17.4262 0 -3.48384
-46.5343 0 -31.8206
24.3425 0 17.1574
3.44966 0 4.03684
-4.13494 0 -20.7124
-116.107 0 -72.8797
125.224 0 76.1413
19.2849 0 -4.75142
-109.017 0 -30.1352
5.64098 0 1.1427
-23.175 0 12.3358
15.636 0 -6.40431
-25.865 0 56.7377
82.8285 0 22.3021
8.71864 0 31.2786
-81.7357 0 -51.2515
-51.2358 0 -23.921
74.6929 0 -48.601
-11.5982 0 -49.144
-66.2353 0 67.344
-5.46951 0 4.76039
-39.2501 0 13.0052
-29.1194 0 4.77743
7.66116 0 -12.965
11.899 0 -8.62432
1.80673 0 4.97354
3.85633 0 -0.287333
2.53554 0 -11.972
-8.50034 0 -21.4417
-9.14507 0 -22.2809
-14.9972 0 37.039
-14.5918 0 -58.7664
50.2122 0 79.808
2.56406 0 -10.7392
-15.6341 0 -16.8254
14.3667 0 -7.80567
-23.0807 0 -31.5978
5.51063 0 7.39502
43.5261 0 41.2097
4.45063 0 0.700031
-5.37377 0 9.35263
-26.5882 0 -37.4668
0.652969 0 9.39626
-5.68528 0 -0.558656
-11.7397 0 0.434226
0.423195 0 -7.59031
-9.72859 0 6.98586
2.34556 0 -9.30185
-3.44371 0 -10.0718
3.97063 0 13.921
-15.0293 0 -50.8749
-4.49755 0 9.72514
-7.45922 0 -4.10443
11.9278 0 -9.72946
-20.1741 0 9.11054
3.08541 0 25.8773
-35.8554 0 -7.91513
5.82364 0 -7.22363
-11.6319 0 3.8625
29.7745 0 -18.8415
14.3484 0 -10.8591
25.8377 0 27.7174
-11.0472 0 9.14699
-4.30615 0 -10.2211
4.7974 0 45.6158
-3.71544 0 -6.79347
3.07924 0 -11.0906
10.4856 0 15.7183
-18.6583 0 1.83025
3.86341 0 -8.58165
31.5579 0 8.46133
-44.4782 0 -17.1959
-17.9578 0 9.69891
92.3389 0 55.066
31.5643 0 -40.6754
-40.6919 0 26.2982
48.2596 0 -30.5429
11.2857 0 1.83742
46.3071 0 -2.04166
-17.511 0 -5.05049
-22.9619 0 1.18362
-4.6044 0 31.0443
3.68294 0 -2.42363
-15.5674 0 -6.3275
-3.02726 0 -26.5661
7.4774 0 5.55372
-21.2493 0 -47.1697
7.15692 0 6.79299
3.27486 0 14.233
-20.8251 0 -7.96787
-5.75349 0 10.9567
33.7619 0 16.0047
-38.0302 0 21.7023
21.3196 0 37.2531
-4.03755 0 12.2729
-72.8449 0 125.765
61.5001 0 19.1182
0.62055 0 -8.77062
75.1863 0 11.656
-78.191 0 -10.0849
-17.498 0 -30.7376
0.90406 0 22.7891
-13.6742 0 4.05916
51.32 0 60.0925
-6.50844 0 -21.1449
-0.864201 0 14.8273
-6.77672 0 -16.1204
11.8607 0 5.10132
-15.7521 0 -0.809991
-14.0643 0 -0.598475
15.4185 0 6.31133
36.8693 0 96.2011
-36.0511 0 -10.0106
39.6622 0 71.1917
4.51037 0 15.0523
-1.80584 0 -21.7633
-15.5561 0 18.4585
2.43177 0 0.719191
0.109079 0 12.3947
-0.304534 0 -15.9249
-12.7929 0 7.66554
7.70372 0 -50.7486
12.573 0 12.2269
5.73414 0 -3.26222
-40.0857 0 -2.62935
2.90396 0 -14.318
-7.61955 0 -35.0108
11.2559 0 8.55638
9.15844 0 31.7482
-10.9367 0 -135.596
2.67269 0 -4.2299
1.98183 0 -10.8301
62.0794 0 -6.30308
18.6843 0 -16.6175
-114.444 0 0.326449
-114.301 0 23.1432
74.0147 0 -36.9744
8.99396 0 -5.08088
-13.8335 0 28.0796
17.6288 0 31.4907
-6.07064 0 -2.7057
-21.4606 0 31.1588
-29.2848 0 -1.92995
-12.7542 0 -18.1257
17.0251 0 8.73792
12.8989 0 12.29
-0.385498 0 36.221
43.3794 0 46.8579
-15.4859 0 -25.2193
13.8082 0 -10.3533
-55.4178 0 72.0583
7.7054 0 7.67836
14.1833 0 -14.4548
13.9107 0 -0.813657
39.6455 0 -2.84794
55.2833 0 40.3144
-41.7083 0 28.5707
-54.9659 0 -56.7042
4.63846 0 6.95878
87.7974 0 49.2032
-8.55749 0 9.06164
10.8193 0 23.6023
21.8773 0 -11.8366
7.35632 0 27.098
0.779451 0 -11.8582
-0.0266349 0 0.112178
10.5942 0 6.74524
-119.761 0 -49.3529
-30.5499 0 -24.0188
-9.90996 0 -14.2808
12.9733 0 43.2889
-18.1188 0 37.3557
51.5184 0 -28.1215
-23.9891 0 21.291
12.5615 0 -31.7554
42.0756 0 2.82086
-67.3081 0 -3.38181
14.3645 0 -10.847
-10.4948 0 3.30007
-16.6894 0 31.5746
14.5708 0 12.621
1.03886 0 -12.2624
3.10193 0 -6.52654
0.404191 0 14.5153
-33.7023 0 32.2097
26.7222 0 -25.3666
10.6657 0 -31.9971
-13.5364 0 -29.9826
36.2471 0 9.78775
-14.7777 0 126.099
-0.511479 0 -2.31442
-15.8682 0 20.7295
-3.20409 0 17.9698
-0.54208 0 3.54289
69.9735 0 40.7037
7.03603 0 -2.5667
52.6311 0 -20.4523
-39.9511 0 16.6537
1.06774 0 -12.7168
56.5352 0 -12.3011
-33.159 0 -45.319
-6.60003 0 22.7194
12.3046 0 37.5264
35.3959 0 -17.4034
-3.14288 0 8.48516
-14.4181 0 2.13024
-2.11586 0 -29.5852
9.2734 0 1.95267
-13.9279 0 -0.11555
-14.295 0 26.8687
2.12517 0 5.03035
54.0708 0 -86.9988
1.14092 0 -5.38885
0.0423646 0 5.45224
-43.7788 0 4.38537
-11.7015 0 4.90257
0.996662 0 -10.3317
-3.89432 0 -23.4179
-5.53419 0 -5.37462
-56.1441 0 -61.9049
-6.85635 0 6.31934
3.27469 0 10.3573
-36.8241 0 9.90346
-42.2401 0 -23.3605
5.74078 0 -13.8102
8.46065 0 -7.91088
-11.6473 0 -1.27674
-7.90236 0 6.38301
6.26535 0 -17.0903
-16.1845 0 -8.06811
-4.79766 0 22.8264
-33.6306 0 35.3425
27.3947 0 5.02864
-14.5864 0 -2.03178
3.57021 0 -2.08471
3.68393 0 -18.9401
92.1068 0 -11.3359
-71.7762 0 -68.6876
32.8524 0 37.0368
3.09711 0 -7.69311
-20.7046 0 30.6629
-3.85781 0 -0.131401
56.4156 0 -29.1179
-5.423 0 17.5055
-72.7847 0 30.6226
76.5274 0 31.5247
51.3846 0 13.2995
7.96797 0 7.22708
-10.4945 0 -16.9119
-10.6475 0 -24.5319
-39.8231 0 1.16869
8.3051 0 -0.163332
-3.58411 0 -2.87759
-3.33737 0 -3.48888
-35.4965 0 -2.19862
-24.2749 0 -42.3387
-20.5911 0 5.51609
75.0537 0 4.56708
-3.59166 0 5.97593
-0.924561 0 12.0392
-13.9064 0 -10.0753
24.7823 0 45.649
-22.342 0 -66.1104
-4.04399 0 10.1778
9.73696 0 38.8228
20.0347 0 7.25622
16.0312 0 -25.0451
-19.1455 0 2.52399
-40.9163 0 -99.6235
1.77093 0 19.4654
14.9622 0 -44.4885
4.86491 0 -55.0501
4.4596 0 -25.0429
-21.6912 0 6.69831
8.47674 0 -9.90198
6.23175 0 -5.22719
-7.37077 0 -1.194
31.991 0 5.95453
-9.95722 0 29.0418
-49.179 0 -96.3577
-26.3632 0 18.0713
-24.0138 0 -32.3773
-13.388 0 8.69807
11.3873 0 23.267
17.5545 0 -13.3394
-14.7263 0 -7.0832
12.275 0 -5.28319
3.67234 0 8.84901
-13.6759 0 -16.3406
24.1825 0 -29.347
98.6896 0 45.1711
-20.8761 0 8.95136
-6.03684 0 0.342474
2.61535 0 5.01744
-9.52863 0 5.91792
-8.28932 0 -0.567618
5.45765 0 14.4286
11.0312 0 3.01607
4.40901 0 3.85391
-18.9166 0 -54.2022
10.2753 0 19.2704
-14.5103 0 -5.09223
-10.1089 0 14.6373
-15.2526 0 -41.3065
-1.26686 0 -0.829636
-5.67683 0 41.1987
-15.5447 0 -7.80115
-4.48894 0 14.9206
1.71085 0 -1.33926
25.698 0 1.15552
49.9788 0 -3.80223
14.7783 0 4.63559
-11.7504 0 -19.0403
25.3452 0 16.7363
-4.58764 0 1.73808
-7.81105 0 -21.6465
11.3492 0 14.435
-60.4187 0 54.7034
63.9917 0 -14.4389
11.6714 0 1.12379
14.4009 0 -0.940541
-36.8704 0 -2.79313
-10.3584 0 0.147689
37.754 0 36.7321
17.1912 0 -21.7162
-15.1949 0 16.7125
46.8331 0 22.0495
11.2711 0 20.759
3.87662 0 -21.3792
39.3484 0 102.401
-2.63399 0 -24.2782
-13.7831 0 36.8763
-13.8587 0 40.4034
35.8133 0 45.9428
14.2503 0 6.14238
-22.5189 0 -8.05744
-1.26881 0 -3.50503
-0.0354928 0 0.213777
-7.77298 0 -11.2598
-1.74055 0 2.0331
50.463 0 39.4976
13.7377 0 37.4387
10.7138 0 14.6126
34.209 0 7.09875
46.4462 0 5.10646
-8.79607 0 -9.13616
11.6296 0 13.9464
-5.7217 0 -8.94346
-12.92 0 26.4154
0.37693 0 -1.62844
19.6226 0 11.0205
-0.255097 0 0.672043
-15.2002 0 -0.775464
12.3563 0 12.5059
8.43134 0 -17.9281
1.09729 0 12.0102
26.5217 0 31.3002
14.7668 0 -5.86547
36.5097 0 77.0306
-37.5091 0 -34.2847
13.1469 0 -133.459
1.20538 0 3.30728
-14.4795 0 -4.68517
10.0205 0 -2.6612
-10.1816 0 21.3924
-2.31905 0 0.49534
9.67753 0 -35.3697
-5.76001 0 6.86431
-32.4313 0 17.1003
-1.9755 0 19.7196
-2.02694 0 27.9192
-16.8814 0 -72.1888
81.0497 0 -94.9041
54.3163 0 75.1612
-25.5926 0 -16.9762
-62.327 0 -72.9553
32.291 0 85.5794
-42.2775 0 0.110824