# vtk DataFile Version 3.0
SiWiRVisFile
ASCII
DATASET UNSTRUCTURED_GRID
POINTS 1600 DOUBLE
78.9768 100 75.6724
80.163 100 76.0947
81.132 100 76.5831
82.7605 100 76.1541
83.8052 100 76.2775
84.7726 100 76.6416
85.8688 100 76.8124
86.9869 100 76.9159
88.1314 100 77.0195
89.2812 100 77.0717
90.3726 100 77.173
91.3986 100 77.1745
92.4047 100 76.971
93.5252 100 76.8912
94.5549 100 76.5872
95.5439 100 76.1536
96.6342 100 75.7234
97.8847 100 75.6292
99.1557 100 75.227
100.298 100 75.1653
102.737 100 69.4305
103.018 100 71.372
103.582 100 70.433
104.812 100 70.3166
105.887 100 70.1868
107.093 100 70.0234
108.271 100 69.9475
109.559 100 69.9221
110.74 100 69.5415
111.67 100 68.6994
112.822 100 68.6994
113.752 100 69.5415
114.933 100 69.9221
116.222 100 69.9475
117.4 100 70.0234
118.605 100 70.1868
119.681 100 70.3166
120.91 100 70.433
121.475 100 71.372
121.756 100 69.4305
124.194 100 75.1653
125.337 100 75.227
126.608 100 75.6292
127.858 100 75.7234
128.948 100 76.1536
129.937 100 76.5872
130.967 100 76.8912
132.088 100 76.971
133.094 100 77.1745
134.12 100 77.173
135.211 100 77.0717
136.361 100 77.0195
137.505 100 76.9159
138.624 100 76.8124
139.72 100 76.6416
140.687 100 76.2775
141.732 100 76.1541
143.36 100 76.5831
144.329 100 76.0947
145.516 100 75.6724
79.2777 100 76.8121
80.2444 100 77.3329
82.1243 100 77.1084
83.1472 100 77.2095
84.1438 100 77.5129
85.1892 100 77.685
86.3146 100 77.8135
87.4081 100 77.9213
88.5879 100 77.9845
89.6795 100 78.0693
90.8455 100 78.1428
91.9014 100 78.2084
92.9103 100 77.9649
93.9055 100 78.0171
94.9311 100 77.7947
96.0075 100 77.1457
97.082 100 76.7263
98.7954 100 76.445
99.9839 100 76.4882
101.303 100 75.8501
102.045 100 71.8595
101.951 100 74.8378
103.488 100 74.1926
105.897 100 72.8151
105.357 100 71.3967
106.617 100 71.0279
107.766 100 70.9748
108.832 100 70.9103
110.319 100 70.8317
111.547 100 70.3777
112.945 100 70.3777
114.174 100 70.8317
115.66 100 70.9103
116.727 100 70.9748
117.876 100 71.0279
119.135 100 71.3967
118.596 100 72.8151
121.004 100 74.1926
122.541 100 74.8378
122.447 100 71.8595
123.189 100 75.8501
124.508 100 76.4882
125.697 100 76.445
127.41 100 76.7263
128.485 100 77.1457
129.561 100 77.7947
130.587 100 78.0171
131.582 100 77.9649
132.591 100 78.2084
133.647 100 78.1428
134.813 100 78.0693
135.905 100 77.9845
137.084 100 77.9213
138.178 100 77.8135
139.303 100 77.685
140.349 100 77.5129
141.345 100 77.2095
142.368 100 77.1084
144.248 100 77.3329
145.215 100 76.8121
79.282 100 77.9678
80.386 100 78.4018
81.2811 100 77.7882
82.4193 100 78.1519
83.4521 100 78.3747
84.5861 100 78.6118
85.6532 100 78.6979
86.7558 100 78.856
87.8291 100 78.9519
88.9161 100 78.9893
90.0976 100 79.1043
91.2128 100 79.1313
92.4841 100 79.1036
93.5806 100 79.0622
94.6511 100 78.8505
95.8116 100 78.349
97.015 100 77.8159
98.0987 100 77.3431
99.8771 100 77.5658
100.97 100 77.0181
102.329 100 75.841
103.134 100 75.1623
104.56 100 75.5232
105.817 100 75.49
106.663 100 74.9503
108.589 100 75.4036
109.599 100 75.5809
109.628 100 74.2422
110.567 100 72.5739
111.55 100 71.5707
112.942 100 71.5707
113.926 100 72.5739
114.865 100 74.2422
114.893 100 75.5809
115.904 100 75.4036
117.829 100 74.9503
118.676 100 75.49
119.932 100 75.5232
121.358 100 75.1623
122.163 100 75.841
123.523 100 77.0181
124.615 100 77.5658
126.394 100 77.3431
127.477 100 77.8159
128.681 100 78.349
129.841 100 78.8505
130.912 100 79.0622
132.008 100 79.1036
133.28 100 79.1313
134.395 100 79.1043
135.576 100 78.9893
136.663 100 78.9519
137.737 100 78.856
138.839 100 78.6979
139.906 100 78.6118
141.04 100 78.3747
142.073 100 78.1519
143.211 100 77.7882
144.106 100 78.4018
145.21 100 77.9678
79.521 100 79.0748
80.7442 100 79.5282
81.5938 100 78.8807
82.7196 100 79.2637
83.9583 100 79.5464
85.0845 100 79.6855
86.133 100 79.7511
87.1848 100 79.9229
88.2756 100 80.0011
89.3354 100 79.9854
90.3325 100 80.1526
91.3291 100 80.223
92.3442 100 80.2652
93.3737 100 80.0952
94.3847 100 79.8498
95.4681 100 79.4742
96.6077 100 79.0607
97.6213 100 78.7508
98.6275 100 78.3744
99.6369 100 78.6511
100.628 100 78.2775
102.655 100 76.9656
103.399 100 76.1639
104.475 100 76.6009
105.533 100 76.5736
106.708 100 76.5866
108.61 100 76.5327
109.507 100 76.9245
110.714 100 74.7208
111.249 100 73.5207
113.243 100 73.5207
113.779 100 74.7208
114.986 100 76.9245
115.882 100 76.5327
117.785 100 76.5866
118.959 100 76.5736
120.018 100 76.6009
121.094 100 76.1639
121.838 100 76.9656
123.864 100 78.2775
124.856 100 78.6511
125.865 100 78.3744
126.871 100 78.7508
127.885 100 79.0607
129.024 100 79.4742
130.108 100 79.8498
131.119 100 80.0952
132.148 100 80.2652
133.163 100 80.223
134.16 100 80.1526
135.157 100 79.9854
136.217 100 80.0011
137.308 100 79.9229
138.359 100 79.7511
139.408 100 79.6855
140.534 100 79.5464
141.773 100 79.2637
142.899 100 78.8807
143.748 100 79.5282
144.971 100 79.0748
79.8198 100 80.1476
80.8097 100 80.6523
81.7442 100 80.0456
83.1334 100 80.3326
84.4421 100 80.4679
85.6125 100 80.6569
86.6941 100 80.991
87.7738 100 80.9554
88.8349 100 81.0613
89.8502 100 81.1963
90.9017 100 81.2355
91.9292 100 81.2842
92.9269 100 81.1585
93.9388 100 80.9794
95.0573 100 80.6651
96.0734 100 80.3237
97.0642 100 80.0757
98.1261 100 79.6751
99.3122 100 79.6879
100.423 100 79.3649
101.868 100 77.8974
103.009 100 77.8835
104.071 100 77.6074
105.112 100 77.4927
106.193 100 77.4992
107.452 100 77.3109
108.574 100 77.6382
109.655 100 78.0475
110.503 100 76.4499
111.652 100 75.5752
112.841 100 75.5752
113.99 100 76.4499
114.838 100 78.0475
115.918 100 77.6382
117.041 100 77.3109
118.299 100 77.4992
119.381 100 77.4927
120.422 100 77.6074
121.484 100 77.8835
122.625 100 77.8974
124.069 100 79.3649
125.18 100 79.6879
126.366 100 79.6751
127.428 100 80.0757
128.419 100 80.3237
129.435 100 80.6651
130.554 100 80.9794
131.565 100 81.1585
132.563 100 81.2842
133.591 100 81.2355
134.642 100 81.1963
135.657 100 81.0613
136.719 100 80.9554
137.798 100 80.991
138.88 100 80.6569
140.05 100 80.4679
141.359 100 80.3326
142.748 100 80.0456
143.683 100 80.6523
144.673 100 80.1476
79.8595 100 81.2486
80.8987 100 81.7705
81.8267 100 81.1668
82.8837 100 81.6685
83.9298 100 81.3666
85.0748 100 81.7188
86.199 100 81.8911
87.2725 100 81.9198
88.3038 100 81.9359
89.3264 100 82.1496
90.3211 100 82.2887
91.398 100 82.3071
92.474 100 82.2285
93.4744 100 82.0358
94.5399 100 81.7312
95.6073 100 81.4467
96.6767 100 81.3639
97.8048 100 80.8121
98.8093 100 80.5366
100.096 100 80.3436
101.559 100 78.9511
102.689 100 79.092
103.668 100 78.7909
104.702 100 78.751
105.71 100 78.4409
106.846 100 78.6633
107.861 100 78.4412
108.794 100 78.8038
110.633 100 78.3534
111.156 100 77.442
113.336 100 77.442
113.86 100 78.3534
115.698 100 78.8038
116.631 100 78.4412
117.646 100 78.6633
118.783 100 78.4409
119.79 100 78.751
120.824 100 78.7909
121.803 100 79.092
122.934 100 78.9511
124.396 100 80.3436
125.683 100 80.5366
126.688 100 80.8121
127.816 100 81.3639
128.885 100 81.4467
129.952 100 81.7312
131.018 100 82.0358
132.018 100 82.2285
133.094 100 82.3071
134.171 100 82.2887
135.166 100 82.1496
136.189 100 81.9359
137.22 100 81.9198
138.293 100 81.8911
139.418 100 81.7188
140.563 100 81.3666
141.609 100 81.6685
142.666 100 81.1668
143.594 100 81.7705
144.633 100 81.2486
79.9535 100 82.3558
81.0053 100 82.8689
81.9327 100 82.3539
82.9145 100 82.7899
84.3309 100 82.4354
85.3195 100 82.8655
86.6518 100 82.8751
87.6314 100 82.9024
88.6502 100 83.0811
89.735 100 83.1586
90.8068 100 83.2967
91.8924 100 83.2899
92.9618 100 83.2178
94.0787 100 82.9486
95.202 100 82.75
96.1581 100 82.3035
97.4566 100 82.1034
98.4679 100 81.5543
99.5103 100 81.2054
101.086 100 80.2039
102.166 100 79.9859
103.313 100 80.037
104.31 100 79.7928
105.487 100 79.4663
106.851 100 79.6582
108.006 100 79.4974
109.129 100 79.7891
109.928 100 79.1951
110.638 100 80.0077
111.66 100 79.3426
112.833 100 79.3426
113.855 100 80.0077
114.564 100 79.1951
115.364 100 79.7891
116.486 100 79.4974
117.641 100 79.6582
119.006 100 79.4663
120.183 100 79.7928
121.18 100 80.037
122.326 100 79.9859
123.406 100 80.2039
124.982 100 81.2054
126.024 100 81.5543
127.036 100 82.1034
128.334 100 82.3035
129.29 100 82.75
130.414 100 82.9486
131.531 100 83.2178
132.6 100 83.2899
133.686 100 83.2967
134.757 100 83.1586
135.842 100 83.0811
136.861 100 82.9024
137.841 100 82.8751
139.173 100 82.8655
140.162 100 82.4354
141.578 100 82.7899
142.56 100 82.3539
143.487 100 82.8689
144.539 100 82.3558
80.0787 100 83.4405
81.0221 100 83.9875
82.0098 100 83.4272
83.0333 100 83.9526
83.9044 100 83.3632
84.8276 100 83.8286
85.9574 100 83.8368
87.0493 100 83.8993
88.1374 100 84.1342
89.1281 100 84.0658
90.1254 100 84.2065
91.2549 100 84.3077
92.3111 100 84.3317
93.3623 100 84.2758
94.3915 100 84.1269
95.4862 100 83.7484
97.0093 100 82.9812
98.4827 100 82.6864
99.5186 100 82.1379
100.599 100 81.3207
101.872 100 80.8977
102.922 100 81.2144
103.863 100 80.8877
105.022 100 80.5548
106.141 100 80.423
107.521 100 80.6223
108.449 100 80.6176
109.682 100 80.6927
110.746 100 81.0694
111.631 100 80.5352
112.861 100 80.5352
113.746 100 81.0694
114.81 100 80.6927
116.043 100 80.6176
116.971 100 80.6223
118.352 100 80.423
119.471 100 80.5548
120.629 100 80.8877
121.571 100 81.2144
122.62 100 80.8977
123.893 100 81.3207
124.974 100 82.1379
126.01 100 82.6864
127.483 100 82.9812
129.006 100 83.7484
130.101 100 84.1269
131.13 100 84.2758
132.181 100 84.3317
133.237 100 84.3077
134.367 100 84.2065
135.364 100 84.0658
136.355 100 84.1342
137.443 100 83.8993
138.535 100 83.8368
139.665 100 83.8286
140.588 100 83.3632
141.459 100 83.9526
142.483 100 83.4272
143.47 100 83.9875
144.414 100 83.4405
80.1116 100 84.6365
81.0949 100 85.0746
82.097 100 84.5803
83.0584 100 85.2211
83.9535 100 84.5236
85.0444 100 84.874
86.2986 100 84.9388
87.3559 100 84.8547
88.6628 100 85.3434
89.6377 100 85.0928
90.7291 100 85.2198
91.7391 100 85.2655
92.9182 100 85.238
94.0348 100 85.3806
94.9507 100 85.1302
96.0351 100 84.7094
96.7389 100 83.9945
97.8113 100 83.7762
99.5467 100 83.1637
100.596 100 82.3492
[...]
POINT_DATA 1600
SCALARS mass double
LOOKUP_TABLE default
1
1
1
1
1
1
1
1
1
1
1
1
1
1
1
1
1
1
1
1
1
1
1
1
1
1
1
1
1
1
1
1
1
1
1
1
1
1
1
1
1
1
1
1
1
1
1
1
1
1
1
1
1
1
1
1
1
1
1
1
1
1
1
1
1
1
1
1
1
1
1
1
1
1
1
1
1
1
1
1
1
1
1
1
1
1
1
1
1
1
1
1
1
1
1
1
1
1
1
1
1
1
1
1
1
1
1
1
1
1
1
1
1
1
1
1
1
1
1
1
1
1
1
1
1
1
1
1
1
1
1
1
1
1
1
1
1
1
1
1
1
1
1
1
1
1
1
1
1
1
1
1
1
1
1
1
1
1
1
1
1
1
1
1
1
1
1
1
1
1
1
1
1
1
1
1
1
1
1
1
1
1
1
1
1
1
1
1
1
1
1
1
1
1
1
1
1
1
1
1
1
1
1
1
1
1
1
1
1
1
1
1
1
1
1
1
1
1
1
1
1
1
1
1
1
1
1
1
1
1
1
1
1
1
1
1
1
1
1
1
1
1
1
1
1
1
1
1
1
1
1
1
1
1
1
1
1
1
1
1
1
1
1
1
1
1
1
1
1
1
1
1
1
1
1
1
1
1
1
1
1
1
1
1
1
1
1
1
1
1
1
1
1
1
1
1
1
1
1
1
1
1
1
1
1
1
1
1
1
1
1
1
1
1
1
1
1
1
1
1
1
1
1
1
1
1
1
1
1
1
1
1
1
1
1
1
1
1
1
1
1
1
1
1
1
1
1
1
1
1
1
1
1
1
1
1
1
1
1
1
1
1
1
1
1
1
1
1
1
1
1
1
1
1
1
1
1
1
1
1
1
1
1
1
1
1
1
1
1
1
1
1
1
1
1
1
1
1
1
1
1
1
1
1
1
1
1
1
1
1
1
1
1
1
1
1
1
1
1
1
1
1
1
1
1
1
1
1
1
1
1
1
1
1
1
1
1
1
1
1
1
1
1
1
1
1
1
1
1
1
1
1
1
1
1
1
1
1
1
1
1
1
1
1
1
1
1
1
1
1
1
1
1
1
1
1
1
1
1
1
1
1
1
1
1
1
1
1
1
1
1
1
1
1
1
1
1
1
1
1
1
1
1
1
1
1
1
1
1
1
1
1
1
1
1
1
1
1
1
1
1
1
1
1
1
1
1
1
1
1
1
1
1
1
1
1
1
1
1
1
1
1
1
1
1
1
1
1
1
1
1
1
1
1
1
1
1
1
1
1
1
1
1
1
1
1
1
1
1
1
1
1
1
1
1
1
1
1
1
1
1
1
1
1
1
1
1
1
1
1
1
1
1
1
1
1
1
1
1
1
1
1
1
1
1
1
1
1
1
1
1
1
1
1
1
1
1
1
1
1
1
1
1
1
1
1
1
1
1
1
1
1
1
1
1
1
1
1
1
1
1
1
1
1
1
1
1
1
1
1
1
1
1
1
1
1
1
1
1
1
1
1
1
1
1
1
1
1
1
1
1
1
1
1
1
1
1
1
1
1
1
1
1
1
1
1
1
1
1
1
1
1
1
1
1
1
1
1
1
1
1
1
1
1
1
1
1
1
1
1
1
1
1
1
1
1
1
1
1
1
1
1
1
1
1
1
1
1
1
1
1
1
1
1
1
1
1
1
1
1
1
1
1
1
1
1
1
1
1
1
1
1
1
1
1
1
1
1
1
1
1
1
1
1
1
1
1
1
1
1
1
1
1
1
1
1
1
1
1
1
1
1
1
1
1
1
1
1
1
1
1
1
1
1
1
1
1
1
1
1
1
1
1
1
1
1
1
1
1
1
1
1
1
1
1
1
1
1
1
1
1
1
1
1
1
1
1
1
1
1
1
1
1
1
1
1
1
1
1
1
1
1
1
1
1
1
1
1
1
1
1
1
1
1
1
1
1
1
1
1
1
1
1
1
1
1
1
1
1
1
1
1
1
1
1
1
1
1
1
1
1
1
1
1
1
1
1
1
1
1
1
1
1
1
1
1
1
1
1
1
1
1
1
1
1
1
1
1
1
1
1
1
1
1
1
1
1
1
1
1
1
1
1
1
1
1
1
1
1
1
1
1
1
1
1
1
1
1
1
1
1
1
1
1
1
1
1
1
1
1
1
1
1
1
1
1
1
1
1
1
1
1
1
1
1
1
1
1
1
1
1
1
1
1
1
1
1
1
1
1
1
1
1
1
1
1
1
1
1
1
1
1
1
1
1
1
1
1
1
1
1
1
1
1
1
1
1
1
1
1
1
1
1
1
1
1
1
1
1
1
1
1
1
1
1
1
1
1
1
1
1
1
1
1
1
1
1
1
1
1
1
1
1
1
1
1
1
1
1
1
1
1
1
1
1
1
1
1
1
1
1
1
1
1
1
1
1
1
1
1
1
1
1
1
1
1
1
1
1
1
1
1
1
1
1
1
1
1
1
1
1
1
1
1
1
1
1
1
1
1
1
1
1
1
1
1
1
1
1
1
1
1
1
1
1
1
1
1
1
1
1
1
1
1
1
1
1
1
1
1
1
1
1
1
1
1
1
1
1
1
1
1
1
1
1
1
1
1
1
1
1
1
1
1
1
1
1
1
1
1
1
1
1
1
1
1
1
1
1
1
1
1
1
1
1
1
1
1
1
1
1
1
1
1
1
1
1
1
1
1
1
1
1
1
1
1
1
1
1
1
1
1
1
1
1
1
1
1
1
1
1
1
1
1
1
1
1
1
1
1
1
1
1
1
1
1
1
1
1
1
1
1
1
1
1
1
1
1
1
1
1
1
1
1
1
1
1
1
1
1
1
1
1
1
1
1
1
1
1
1
1
1
1
1
1
1
1
1
1
1
1
1
1
1
1
1
1
1
1
1
1
1
1
1
1
1
1
1
1
1
1
1
1
1
1
1
1
1
1
1
1
1
1
1
1
1
1
1
1
1
1
1
1
1
1
1
1
1
1
1
1
1
1
1
1
1
1
1
1
1
1
1
1
1
1
1
1
1
1
1
1
1
1
1
1
1
1
1
1
1
1
1
1
1
1
1
1
1
1
1
1
1
1
1
1
1
1
1
1
1
1
1
1
1
1
1
1
1
1
1
1
1
1
1
1
1
1
1
1
1
1
1
1
1
1
1
1
1
1
1
1
1
1
1
1
1
1
1
1
1
1
1
1
1
1
1
1
1
1
1
1
1
1
1
1
1
1
1
1
1
1
1
1
1
1
1
1
1
1
1
1
1
1
1
1
1
1
1
1
1
1
1
1
1
1
1
1
1
1
1
1
1
1
1
1
1
1
1
1
1
1
1
1
1
1
1
1
1
1
1
1
1
1
1
1
1
1
1
1
1
1
1
1
1
1
1
1
1
1
1
1
1
1
1
1
1
1
1
1
1
1
1
1
1
1
1
1
1
1
1
1
1
1
1
1
1
1
1
1
1
1
1
1
1
1
1
1
1
1
1
1
1
1
1
1
1
1
1
1
1
1
1
1
1
1
1
1
1
1
1
1
1
1
1
1
1
1
1
1
1
1
1
1
1
1
1
1
1
1
1
1
1
1
1
1
1
1
1
1
1
1
1
1
1
1
1
1
1
1
1
VECTORS force double
14.4251 0 14.3175
-26.7004 0 5.59738
10.6873 0 25.0722
-44.2807 0 3.50343
-16.9569 0 0.596883
63.6612 0 6.63627
2.96176 0 -9.35517
0.810633 0 -8.44703
-15.3178 0 -15.8062
-26.8998 0 -14.4789
-71.2421 0 -10.9153
7.02999 0 20.9954
65.1352 0 -4.01548
-21.9744 0 29.568
10.4373 0 19.1622
23.191 0 -15.5579
-1.4879 0 0.030023
1.37622 0 16.3559
-4.66851 0 19.4064
4.97526 0 17.6048
7.55021 0 9.5244
8.0231 0 0.917929
10.5535 0 -17.1423
-22.3155 0 13.8499
22.0782 0 4.42851
4.9531 0 5.37126
-2.53318 0 3.66087
-0.405398 0 14.3264
0.542668 0 11.0557
-2.0583 0 11.6524
2.0583 0 11.6524
-0.542668 0 11.0557
0.405398 0 14.3264
2.53318 0 3.66087
-4.9531 0 5.37126
-22.0782 0 4.42851
22.3155 0 13.8499
-10.5535 0 -17.1423
-8.0231 0 0.917928
-7.55021 0 9.5244
-4.97526 0 17.6048
4.66851 0 19.4064
-1.37622 0 16.3559
1.4879 0 0.0300223
-23.191 0 -15.5579
-10.4373 0 19.1622
21.9744 0 29.568
-65.1352 0 -4.01548
-7.02998 0 20.9954
71.2421 0 -10.9153
26.8998 0 -14.4789
15.3178 0 -15.8062
-0.810633 0 -8.44703
-2.96176 0 -9.35517
-63.6612 0 6.63627
16.9569 0 0.596883
44.2807 0 3.50343
-10.6873 0 25.0722
26.7004 0 5.59738
-14.4251 0 14.3175
-4.42508 0 -7.82748
8.50508 0 -25.7045
-56.4484 0 -34.0118
20.4381 0 8.34948
7.25165 0 21.8524
33.234 0 4.2298
-2.99119 0 7.3752
23.6392 0 10.2101
-23.3702 0 -4.08992
21.1677 0 27.7779
-55.7664 0 -9.00231
-36.3293 0 -15.4409
-66.3112 0 -7.09634
85.5792 0 -6.6209
5.17251 0 -65.1669
5.94207 0 26.6753
11.4865 0 -3.38624
4.22032 0 -11.2731
-5.01837 0 -31.9203
-81.3655 0 0.631171
-11.8868 0 5.75271
-2.00325 0 -8.60399
19.7825 0 -54.0238
-1.3584 0 -5.78467
11.0078 0 -18.7208
-4.11713 0 8.16464
-35.2091 0 -10.1505
39.5273 0 -9.79925
6.94184 0 -14.6786
-6.08243 0 6.45082
6.08243 0 6.45082
-6.94184 0 -14.6786
-39.5273 0 -9.79925
35.2091 0 -10.1505
4.11713 0 8.16464
-11.0078 0 -18.7208
1.3584 0 -5.78467
-19.7825 0 -54.0238
2.00325 0 -8.60399
11.8868 0 5.75271
81.3655 0 0.631171
5.01837 0 -31.9203
-4.22032 0 -11.2731
-11.4865 0 -3.38624
-5.94207 0 26.6753
-5.17251 0 -65.1669
-85.5792 0 -6.6209
66.3112 0 -7.09634
36.3293 0 -15.4409
55.7664 0 -9.00231
-21.1677 0 27.7779
23.3702 0 -4.08992
-23.6392 0 10.2101
2.99119 0 7.3752
-33.234 0 4.2298
-7.25165 0 21.8524
-20.4381 0 8.34948
56.4484 0 -34.0118
-8.50508 0 -25.7045
4.42508 0 -7.82748
17.6599 0 -4.66458
2.56893 0 31.4363
7.00272 0 -2.80173
-26.666 0 -3.08699
35.8822 0 17.6034
-34.0096 0 2.11832
19.7397 0 18.5399
-6.53082 0 -11.6539
11.0558 0 5.5648
28.8009 0 19.3145
-13.5438 0 -22.9686
24.9988 0 29.9815
1.83944 0 29.3686
-4.05558 0 -33.7015
-19.8026 0 -92.7646
22.9486 0 8.91527
-13.9561 0 14.6343
-12.8133 0 6.25497
-42.0687 0 -32.0589
2.98705 0 12.7754
49.6578 0 56.3599
-12.0818 0 -21.6186
1.47283 0 -9.39138
-102.183 0 68.6122
93.7369 0 -55.3933
-67.4889 0 -11.4108
79.6928 0 22.5817
8.87861 0 16.2588
9.77379 0 0.0896916
-2.61723 0 -9.12948
2.61723 0 -9.12948
-9.77379 0 0.0896883
-8.87862 0 16.2588
-79.6928 0 22.5817
67.4889 0 -11.4108
-93.7369 0 -55.3933
102.183 0 68.6122
-1.47283 0 -9.39138
12.0818 0 -21.6186
-49.6578 0 56.3599
-2.98705 0 12.7754
42.0687 0 -32.0589
12.8133 0 6.25497
13.9561 0 14.6343
-22.9486 0 8.91527
19.8026 0 -92.7646
4.05559 0 -33.7015
-1.83944 0 29.3686
-24.9988 0 29.9815
13.5438 0 -22.9686
-28.8009 0 19.3145
-11.0558 0 5.5648
6.53082 0 -11.6539
-19.7397 0 18.5399
34.0096 0 2.11832
-35.8822 0 17.6034
26.666 0 -3.08699
-7.00272 0 -2.80173
-2.56893 0 31.4363
-17.6599 0 -4.66458
3.8076 0 3.81423
-29.2879 0 1.60575
15.0929 0 -6.59955
-3.37695 0 0.198056
-38.1629 0 -56.5548
11.4953 0 -93.8575
30.7117 0 -31.6765
19.2306 0 9.2825
-4.24745 0 -18.6338
-51.7595 0 12.2284
-13.7718 0 37.7091
43.9277 0 13.3429
27.5439 0 -28.7601
-40.6739 0 5.51182
14.1651 0 27.6199
30.9955 0 1.45875
-21.982 0 26.9346
-7.5369 0 -32.1146
-23.5109 0 -17.2146
-7.18769 0 -5.07308
92.9958 0 14.9693
-74.1861 0 -143.108
40.8789 0 51.1706
-42.412 0 -6.50064
79.8123 0 -88.4129
-31.7765 0 -84.3976
-162.841 0 -77.8584
152.031 0 74.4446
-3.11378 0 0.842758
-10.0225 0 3.51434
10.0225 0 3.51435
3.11378 0 0.84276
-152.031 0 74.4446
162.841 0 -77.8584
31.7765 0 -84.3976
-79.8123 0 -88.4129
42.412 0 -6.50064
-40.8789 0 51.1706
74.1861 0 -143.108
-92.9958 0 14.9693
7.18769 0 -5.07308
23.5109 0 -17.2146
7.53691 0 -32.1146
21.982 0 26.9346
-30.9955 0 1.45875
-14.1651 0 27.6199
40.6739 0 5.51182
-27.5439 0 -28.7601
-43.9277 0 13.3429
13.7718 0 37.7091
51.7595 0 12.2284
4.24745 0 -18.6338
-19.2306 0 9.2825
-30.7117 0 -31.6765
-11.4953 0 -93.8575
38.1629 0 -56.5548
3.37695 0 0.198056
-15.0929 0 -6.59955
29.2879 0 1.60575
-3.8076 0 3.81423
-2.2872 0 -5.28729
5.51758 0 3.80049
15.8729 0 -15.9534
5.54007 0 10.9396
-2.02309 0 73.6603
-28.6353 0 61.8365
8.13338 0 -85.8155
-17.9725 0 -9.60791
-2.76107 0 -80.9145
42.6228 0 -8.95302
-37.0292 0 14.4394
-55.4781 0 9.59852
21.9546 0 -27.9543
-48.6189 0 -168.285
-162.083 0 -184.427
-21.7112 0 63.6238
45.585 0 -47.836
20.1126 0 30.0278
9.31989 0 -170.678
30.5967 0 -54.8032
-1.2675 0 -16.6862
42.5912 0 164.531
-42.8518 0 32.6318
-10.6901 0 100.671
24.1078 0 14.0246
44.3577 0 54.4945
21.8502 0 -5.3483
-78.0396 0 -15.8176
6.26425 0 -6.55198
-4.8477 0 -3.35511
4.8477 0 -3.35511
-6.26425 0 -6.55198
78.0396 0 -15.8176
-21.8501 0 -5.3483
-44.3577 0 54.4945
-24.1078 0 14.0246
10.6901 0 100.671
42.8518 0 32.6318
-42.5912 0 164.531
1.2675 0 -16.6862
-30.5967 0 -54.8032
-9.31989 0 -170.678
-20.1126 0 30.0278
-45.585 0 -47.836
21.7112 0 63.6238
162.083 0 -184.427
48.6189 0 -168.285
-21.9546 0 -27.9543
55.4781 0 9.59852
37.0292 0 14.4394
-42.6228 0 -8.95302
2.76107 0 -80.9145
17.9725 0 -9.60791
-8.13338 0 -85.8155
28.6353 0 61.8365
2.02309 0 73.6603
-5.54007 0 10.9396
-15.8729 0 -15.9534
-5.51758 0 3.80049
2.2872 0 -5.28729
9.60674 0 7.00071
0.997746 0 -3.48246
11.9645 0 7.45977
-23.9726 0 -2.45627
-11.1795 0 47.3943
42.4929 0 -53.4736
-75.3487 0 45.6884
-58.3444 0 -18.5803
-22.393 0 75.6751
-82.1527 0 -9.83142
113.814 0 -40.1886
-6.70094 0 -14.1591
-61.1737 0 21.4162
100.039 0 30.7961
153.393 0 195.053
92.3102 0 146.067
26.3956 0 -58.6115
-112.146 0 -45.2689
-159.623 0 -43.0679
-65.448 0 78.2899
-11.3418 0 27.7021
-44.4733 0 -41.9524
19.3271 0 -11.189
-1.57572 0 -33.3721
37.2314 0 -19.8351
-60.2191 0 -129.646
-80.4003 0 -72.4573
136.615 0 -43.9559
58.1717 0 57.5071
9.59588 0 -43.3896
-9.59589 0 -43.3896
-58.1716 0 57.5071
-136.615 0 -43.9559
80.4002 0 -72.4573
60.2191 0 -129.646
-37.2314 0 -19.8351
1.57572 0 -33.3721
-19.3271 0 -11.189
44.4733 0 -41.9524
11.3418 0 27.7021
65.448 0 78.29
159.623 0 -43.0679
112.146 0 -45.2689
-26.3956 0 -58.6115
-92.3102 0 146.067
-153.393 0 195.053
-100.04 0 30.7961
61.1737 0 21.4162
6.70094 0 -14.1591
-113.814 0 -40.1886
82.1527 0 -9.83142
22.393 0 75.6751
58.3444 0 -18.5803
75.3487 0 45.6884
-42.4929 0 -53.4736
11.1795 0 47.3943
23.9726 0 -2.45627
-11.9645 0 7.45977
-0.997746 0 -3.48246
-9.60674 0 7.00071
6.80107 0 -2.74454
-16.8712 0 12.3832
2.90217 0 -64.5745
35.8369 0 14.751
-37.2304 0 -35.3842
40.9575 0 -15.5543
-182.71 0 6.01383
135.877 0 44.0776
36.6273 0 -7.9068
-16.617 0 35.7342
1.72695 0 -3.5826
-5.1212 0 8.39422
31.8372 0 5.07042
9.71657 0 14.5867
-57.1905 0 -52.5084
64.4357 0 67.2113
94.1305 0 -130.637
75.8489 0 131.925
119.5 0 -216.453
92.3899 0 -23.4795
60.2801 0 -199.698
-126.922 0 -60.5573
34.668 0 -52.8906
14.0047 0 79.9753
40.0063 0 99.0527
-33.9409 0 75.2479
-92.7941 0 79.0089
72.5884 0 -91.6941
6.87103 0 -14.4668
-7.45846 0 13.8282
7.45847 0 13.8282
-6.87103 0 -14.4667
-72.5883 0 -91.694
92.7939 0 79.0089
33.9408 0 75.2479
-40.0063 0 99.0527
-14.0047 0 79.9754
-34.668 0 -52.8906
126.922 0 -60.5573
-60.2801 0 -199.698
-92.3899 0 -23.4795
-119.5 0 -216.453
-75.8489 0 131.925
-94.1305 0 -130.637
-64.4357 0 67.2113
57.1905 0 -52.5084
-9.71657 0 14.5867
-31.8372 0 5.07042
5.1212 0 8.39422
-1.72695 0 -3.5826
16.617 0 35.7342
-36.6273 0 -7.9068
-135.877 0 44.0776
182.71 0 6.01384
-40.9575 0 -15.5543
37.2304 0 -35.3842
-35.8369 0 14.751
-2.90217 0 -64.5745
16.8712 0 12.3832
-6.80107 0 -2.74454
-17.2719 0 22.6701
25.6688 0 -2.8554
-5.3901 0 32.6664
-54.1257 0 14.4465
-53.4178 0 25.0577
42.1362 0 11.0158
-13.198 0 -2.23511
-25.4686 0 -96.8667
-105.777 0 -17.5705
30.412 0 7.37745
159.293 0 -63.3296
-21.9718 0 -59.646
-0.883898 0 -25.3697
7.02021 0 -21.1475
56.7653 0 -7.96928
15.4628 0 53.2637
-46.7824 0 106.591
-0.922286 0 10.5081
-18.1687 0 318.797
22.07 0 -67.1908
-61.2318 0 281.213
-285.073 0 -171.04
174.878 0 0.756882
23.0838 0 40.528
-29.2712 0 48.0319
-429.111 0 -33.0177
414.046 0 6.08084
-19.242 0 -86.8507
0.609497 0 23.3086
66.4957 0 -44.0366
-66.4956 0 -44.0366
-0.609511 0 23.3085
19.2421 0 -86.851
-414.046 0 6.08088
429.111 0 -33.0176
29.2712 0 48.0319
-23.0838 0 40.528
-174.878 0 0.756828
285.073 0 -171.04
61.2318 0 281.213
-22.07 0 -67.1908
18.1687 0 318.797
0.922285 0 10.5081
46.7824 0 106.591
-15.4628 0 53.2637
-56.7653 0 -7.96928
-7.02021 0 -21.1475
0.883898 0 -25.3697
21.9718 0 -59.646
-159.293 0 -63.3296
-30.412 0 7.37745
105.777 0 -17.5705
25.4686 0 -96.8667
13.198 0 -2.23511
-42.1362 0 11.0158
53.4179 0 25.0577
54.1257 0 14.4465
5.3901 0 32.6664
-25.6688 0 -2.8554
17.2719 0 22.6701
-17.7237 0 -28.2541
26.2678 0 32.6789
-2.38857 0 -2.34675
31.8944 0 -40.0241
16.7157 0 13.0186
27.2136 0 3.96677
-25.6266 0 -16.6774
46.3698 0 124.608
-92.3925 0 17.9725
45.8019 0 63.2713
-111.605 0 38.0414
115.478 0 21.8936
-12.573 0 56.3841
-245.874 0 -48.5774
210.52 0 -149.655
-74.0486 0 95.7949
53.9887 0 -27.4329
-99.722 0 -101.237
60.0856 0 -223.1
-39.9917 0 29.8784
2.37426 0 1.13537
-19.8114 0 159.146
160.024 0 -7.34325
6.44339 0 6.97174
-70.2304 0 4.93019
27.8703 0 -7.45135
88.2665 0 -230.297
-26.8336 0 131.675
-164.919 0 -69.2551
32.8017 0 -26.1885
-32.8018 0 -26.1886
164.919 0 -69.2551
26.8335 0 131.675
-88.2664 0 -230.296
-27.8704 0 -7.45144
70.2304 0 4.93016
-6.44339 0 6.97174
-160.024 0 -7.34325
19.8115 0 159.146
-2.37426 0 1.13537
39.9917 0 29.8783
-60.0856 0 -223.1
99.722 0 -101.237
-53.9887 0 -27.4329
74.0486 0 95.7949
-210.52 0 -149.655
245.874 0 -48.5774
12.573 0 56.3841
-115.478 0 21.8936
111.605 0 38.0414
-45.8019 0 63.2713
92.3925 0 17.9725
-46.3698 0 124.608
25.6266 0 -16.6774
-27.2136 0 3.96677
-16.7157 0 13.0186
-31.8944 0 -40.0241
2.38857 0 -2.34675
-26.2678 0 32.6789
17.7237 0 -28.2541
0.28199 0 5.53274
-2.57802 0 8.64593
-24.3736 0 5.6411
-63.8433 0 -89.7224
-14.2087 0 20.0463
-69.449 0 -21.8458
52.3776 0 20.3917
-17.4014 0 -25.0207
-26.1472 0 -17.3692
9.80721 0 -73.9411
-43.2775 0 -74.3411
-117.961 0 -38.0433
106.559 0 -136.908
-84.9348 0 59.4842
46.141 0 -13.9896
-71.3182 0 -57.99
-142.406 0 46.6897
135.078 0 -71.8821
-62.576 0 149.969
-86.6535 0 63.5979
55.2775 0 25.7528
-6.83318 0 -7.6123
16.8086 0 78.7735
19.012 0 0.147859
13.5587 0 -10.211
-32.1606 0 0.222879
-66.3373 0 234.616
-303.958 0 -231.378
353.878 0 215.89
168.996 0 108.32
-168.996 0 108.32
-353.877 0 215.891
303.958 0 -231.379
66.3373 0 234.616
32.1606 0 0.222861
-13.5587 0 -10.2109
-19.012 0 0.147857
-16.8086 0 78.7736
6.83318 0 -7.6123
-55.2775 0 25.7528
86.6535 0 63.5979
62.576 0 149.969
-135.078 0 -71.8821
142.406 0 46.6897
71.3181 0 -57.9899
-46.141 0 -13.9896
84.9348 0 59.4842
-106.559 0 -136.908
117.961 0 -38.0433
43.2775 0 -74.341
-9.80721 0 -73.9411
26.1472 0 -17.3692
17.4014 0 -25.0207
-52.3776 0 20.3917
69.449 0 -21.8458
14.2087 0 20.0463
63.8433 0 -89.7224
24.3736 0 5.6411
2.57801 0 8.64593
-0.28199 0 5.53274
19.1558 0 15.8908
-24.5734 0 -4.27005
-240.46 0 98.0489
253.556 0 -49.4174
80.4758 0 74.3031
-19.0573 0 0.57128
15.8692 0 2.30562
-34.1347 0 18.3116
17.3829 0 16.7708
12.489 0 73.2345
-9.64308 0 77.7672
-93.5821 0 56.9777
18.5375 0 144.648
35.2984 0 34.7594
-71.0314 0 57.2282
69.2899 0 -79.1008
34.8904 0 116.321
102.551 0 34.5199
121.443 0 18.9696
-26.8604 0 -43.3208
148.304 0 62.0009
12.635 0 5.7229
-267.032 0 2.54463
150.25 0 -132.366
71.2741 0 -45.9557
8.11792 0 -0.82404
32.643 0 -15.2853
-54.4349 0 -23.193
-40.3027 0 -65.7446
-2.51949 0 12.6323
2.5195 0 12.6327
40.3029 0 -65.7445
54.4343 0 -23.1931
-32.643 0 -15.2852
-8.11791 0 -0.824087
-71.2741 0 -45.9557
-150.25 0 -132.366
267.032 0 2.54462
-12.635 0 5.7229
-148.304 0 62.0009
26.8604 0 -43.3208
-121.443 0 18.9696
-102.551 0 34.5199
-34.8904 0 116.321
-69.2899 0 -79.1008
71.0314 0 57.2282
-35.2984 0 34.7594
-18.5375 0 144.648
93.5821 0 56.9777
9.64308 0 77.7672
-12.489 0 73.2345
-17.383 0 16.7708
34.1347 0 18.3116
-15.8692 0 2.30562
19.0573 0 0.57128
-80.4758 0 74.3031
-253.556 0 -49.4174
240.46 0 98.0489
24.5734 0 -4.27005
-19.1558 0 15.8908
6.84065 0 9.33562
-38.3979 0 -37.6512
101.452 0 8.46507
32.0713 0 -6.50776
-29.9499 0 -33.165
-20.7442 0 -26.7083
14.3333 0 11.3604
-58.028 0 -11.9717
-12.2456 0 -5.58424
57.6601 0 -21.1942
14.7502 0 -50.8662
-29.7178 0 -10.6645
-140.66 0 -31.3598
203.102 0 -34.338
-7.7265 0 5.00869
49.5565 0 -124.833
-42.1576 0 -17.8772
-34.2167 0 -44.8604
-108.747 0 -177.274
-359.049 0 -62.7517
18.5306 0 48.4701
-12.1792 0 -154.051
-107.076 0 -28.4864
87.3246 0 45.4769
42.8212 0 74.6558
25.4246 0 -6.14561
-39.7606 0 -0.806578
2.80914 0 0.750383
-54.83 0 96.9584
89.5086 0 19.294
-89.5087 0 19.2938
54.8298 0 96.958
-2.80916 0 0.750397
39.7606 0 -0.806651
-25.4246 0 -6.14556
-42.8213 0 74.6558
-87.3246 0 45.477
107.076 0 -28.4864
12.1792 0 -154.051
-18.5306 0 48.4701
359.049 0 -62.7517
108.747 0 -177.274
34.2167 0 -44.8604
42.1576 0 -17.8772
-49.5565 0 -124.833
7.7265 0 5.00869
-203.102 0 -34.338
140.66 0 -31.3598
29.7178 0 -10.6645
-14.7502 0 -50.8662
-57.6601 0 -21.1942
12.2456 0 -5.58424
58.0279 0 -11.9717
-14.3333 0 11.3604
20.7442 0 -26.7083
29.9499 0 -33.165
-32.0713 0 -6.50776
-101.452 0 8.46507
38.3979 0 -37.6512
-6.84064 0 9.33562
-44.3183 0 -9.8345
-45.692 0 18.7178
-52.7758 0 -27.3048
27.7179 0 -57.1397
-127.892 0 139.807
126.546 0 -196.796
19.3061 0 -16.4358
18.6277 0 -10.7207
-24.6852 0 38.0096
-29.8251 0 -99.6565
-21.964 0 52.2958
74.0554 0 -66.1425
-135.723 0 14.3833
25.8847 0 46.1379
10.9338 0 20.5046
28.038 0 120.442
21.2429 0 -10.108
-241.892 0 -101.186
-13.686 0 -25.6534
50.8722 0 153.891
289.453 0 -92.6208
135.446 0 29.4474
31.566 0 29.0198
-88.3978 0 3.47498
1.81938 0 -0.42271
-233.8 0 -21.4598
214.56 0 24.2937
-16.1773 0 -4.73163
-29.9311 0 -33.5409
117.51 0 -54.4721
-117.51 0 -54.4721
29.9309 0 -33.5407
16.1774 0 -4.73166
-214.56 0 24.2937
233.8 0 -21.4598
-1.81938 0 -0.422724
88.3978 0 3.47497
-31.566 0 29.0198
-135.446 0 29.4474
-289.453 0 -92.6207
-50.8722 0 153.891
13.686 0 -25.6534
241.892 0 -101.186
-21.2429 0 -10.108
-28.038 0 120.442
-10.9338 0 20.5046
-25.8847 0 46.1379
135.723 0 14.3833
-74.0554 0 -66.1425
21.964 0 52.2958
29.8251 0 -99.6565
24.6852 0 38.0096
-18.6277 0 -10.7207
-19.3061 0 -16.4358
-126.546 0 -196.796
127.892 0 139.807
-27.7179 0 -57.1397
52.7758 0 -27.3048
45.692 0 18.7178
44.3183 0 -9.8345
17.2561 0 -32.9649
21.0556 0 20.6249
-40.4124 0 -43.5121
37.063 0 52.1505
-25.6708 0 18.665
-85.6147 0 53.9751
22.074 0 15.778
-27.1374 0 -18.576
-12.0531 0 18.1795
92.4825 0 61.5165
-47.4319 0 101.64
-5.61308 0 -53.4418
42.0037 0 -16.7409
-10.2401 0 -30.2564
-25.4607 0 5.86197
-100.138 0 -69.436
91.9352 0 160.503
103.419 0 -84.455
254.126 0 214.19
9.34063 0 -133.602
-32.8634 0 16.5465
13.493 0 277.341
25.1986 0 -38.6657
48.7751 0 -35.9297
32.371 0 30.4039
29.6846 0 -63.8999
84.3124 0 66.8505
-14.2311 0 -31.0692
12.5514 0 16.2799
-26.7493 0 -43.9909
26.749 0 -43.9909
-12.5513 0 16.2799
14.231 0 -31.0691
-84.3124 0 66.8505
-29.6846 0 -63.8998
-32.371 0 30.4039
-48.7751 0 -35.9297
-25.1986 0 -38.6657
-13.493 0 277.341
32.8635 0 16.5465
-9.34063 0 -133.602
-254.126 0 214.19
-103.419 0 -84.455
-91.9352 0 160.503
100.138 0 -69.436
25.4608 0 5.86197
10.2401 0 -30.2564
-42.0037 0 -16.7409
5.61308 0 -53.4418
47.4319 0 101.64
-92.4825 0 61.5165
12.0531 0 18.1795
27.1374 0 -18.576
-22.074 0 15.778
85.6147 0 53.9751
25.6708 0 18.665
-37.063 0 52.1506
40.4124 0 -43.5121
-21.0556 0 20.6249
-17.2561 0 -32.9649
-9.07882 0 17.3496
-45.5263 0 30.4063
-1.00622 0 -9.50293
52.0681 0 44.6635
-117.91 0 51.4342
73.5123 0 -203.611
-127.961 0 -151.769
77.4101 0 -27.5498
-27.7892 0 33.9536
-38.3692 0 22.9082
58.3396 0 -75.5622
-26.5625 0 52.5553
-18.9881 0 15.127
-8.68001 0 24.0173
-13.8984 0 -5.17551
-126.921 0 -78.8534
134.548 0 -84.5834
-47.6248 0 17.1106
-68.5584 0 -202.824
-39.4718 0 118.062
65.7785 0 31.276
-24.811 0 13.8934
-57.4297 0 -46.6038
-3.90708 0 -16.9826
-36.5927 0 64.2327
-133.834 0 -27.1456
143.423 0 -3.74477
56.5683 0 -100.298
-119.21 0 13.3413
135.731 0 42.0485
-135.731 0 42.0487
119.21 0 13.3411
-56.5682 0 -100.298
-143.424 0 -3.74476
133.834 0 -27.1456
36.5926 0 64.2327
3.90707 0 -16.9826
57.4297 0 -46.6039
24.811 0 13.8933
-65.7785 0 31.276
39.4718 0 118.062
68.5584 0 -202.824
47.6248 0 17.1106
-134.548 0 -84.5834
126.921 0 -78.8534
13.8984 0 -5.17551
8.68001 0 24.0173
18.9881 0 15.127
26.5625 0 52.5553