# vtk DataFile Version 3.0
SiWiRVisFile
ASCII
DATASET UNSTRUCTURED_GRID
POINTS 1600 DOUBLE
75.8536 100 71.5752
73.7696 100 71.9113
74.8908 100 72.3848
76.5996 100 72.4885
78.2292 100 72.692
78.9172 100 73.5599
79.7677 100 72.9161
80.7641 100 73.4456
81.9559 100 73.9192
81.2208 100 72.192
93.3002 100 62.2981
92.0695 100 62.7009
92.9405 100 63.4686
90.9906 100 62.3485
81.2472 100 63.9486
89.5193 100 56.3132
91.3534 100 54.9736
89.8975 100 52.5929
84.4864 100 44.1972
93.8916 100 48.6486
107.932 100 23.1106
108.611 100 21.9332
107.366 100 21.1381
107.72 100 19.7752
106.676 100 23.3532
111.217 100 23.1299
110.722 100 13.9509
115.393 100 14.4466
110.212 100 17.5323
110.292 100 16.2982
111.772 100 15.7538
113.234 100 16.2311
110.755 100 15.0817
113.981 100 15.0639
114.5 100 20.3322
117.129 100 24.0352
116.29 100 19.0945
115.712 100 22.124
114.612 100 22.307
115.194 100 23.1865
133.746 100 50.4337
140.006 100 44.1972
131.76 100 52.5651
133.605 100 53.7822
135.42 100 52.5941
135.209 100 66.4066
133.975 100 62.532
133.935 100 65.0366
132.539 100 62.3807
132.831 100 63.4799
142.443 100 72.5324
141.46 100 74.1241
142.66 100 73.6779
143.703 100 73.014
145.757 100 73.3582
147.032 100 72.8567
147.995 100 72.4967
150.008 100 72.4731
151.614 100 71.6427
149.008 100 71.9917
72.7369 100 72.5636
73.7306 100 73.0452
75.7234 100 73.0255
76.7737 100 73.5544
77.8641 100 74.1916
79.8995 100 74.1203
80.9074 100 74.5813
82.0317 100 75.0045
83.2575 100 74.3517
84.2337 100 75.1143
85.2296 100 74.5273
92.3683 100 61.5658
91.4517 100 63.7254
91.4265 100 59.8311
90.5583 100 55.7379
91.4267 100 61.2133
91.3388 100 53.8797
91.18 100 52.6966
92.1884 100 52.7692
95.9782 100 50.2979
107.16 100 22.2089
95.1359 100 31.0017
107.059 100 36.0183
108.487 100 20.5828
109.748 100 21.4235
111.774 100 22.0877
112.77 100 21.0232
111.618 100 21.0126
105.815 100 9.07319
111.204 100 17.035
112.318 100 16.9304
119.22 100 9.16847
113.627 100 18.8472
115.458 100 18.446
114.936 100 21.3711
115.617 100 20.0244
114.469 100 18.0874
119.525 100 36.5535
129.389 100 30.954
116.715 100 22.595
127.918 100 49.5901
129.628 100 50.1537
132.616 100 50.586
134.886 100 53.5196
133.465 100 61.5332
133.932 100 54.7813
132.111 100 58.7431
133.81 100 63.9368
131.385 100 62.4287
139.248 100 74.7897
140.404 100 74.4397
141.253 100 75.2117
142.369 100 74.7895
143.741 100 74.1026
144.759 100 73.7858
146.788 100 73.9526
147.956 100 73.5967
148.973 100 73.1145
151.139 100 73.27
152.097 100 72.73
72.7424 100 73.6056
73.751 100 74.0959
74.785 100 73.5793
75.8148 100 74.1508
76.8309 100 74.6385
78.9311 100 74.7592
80.0236 100 75.2784
81.1255 100 75.6901
82.1841 100 76.1627
83.1811 100 75.625
85.2109 100 75.625
84.2698 100 77.3034
86.6533 100 76.5491
92.406 100 60.3799
90.3186 100 59.6128
92.5757 100 56.894
92.4407 100 54.5271
92.9388 100 53.533
93.7612 100 51.4917
94.8684 100 49.3457
95.8864 100 49.0357
104.821 100 36.6113
105.917 100 36.3976
106.865 100 37.7717
95.1039 100 33.8878
107.839 100 37.1237
107.452 100 34.7678
106.295 100 34.9027
111.742 100 18.0193
112.568 100 19.0757
112.841 100 17.96
113.664 100 17.3081
121.923 100 36.7178
116.353 100 33.323
118.484 100 36.3711
120.742 100 36.8111
118.799 100 37.3879
119.887 100 37.688
121.037 100 37.8716
126.857 100 49.1804
133.813 100 51.5121
130.9 100 51.6387
133.962 100 52.7861
132.884 100 52.8062
132.722 100 56.1116
132.387 100 57.3958
132.419 100 61.2541
138.508 100 75.7266
139.54 100 76.3851
140.277 100 75.5058
141.004 100 76.3133
142.104 100 75.8706
143.511 100 75.2061
144.556 100 74.8816
145.605 100 74.4337
147.601 100 74.7733
148.796 100 74.2652
149.823 100 73.761
150.726 100 74.3249
152.112 100 73.955
72.8004 100 74.787
73.9757 100 75.3111
74.8867 100 74.7146
75.8946 100 75.2064
77.8502 100 75.2415
78.8945 100 75.8541
80.0739 100 76.3494
81.1187 100 76.8204
83.2228 100 76.8072
84.1963 100 76.2529
84.395 100 78.5337
85.5419 100 76.9435
86.9541 100 75.5085
92.1701 100 59.0915
91.0919 100 58.7059
90.2803 100 57.9698
92.7996 100 55.6341
91.7909 100 56.191
93.7981 100 54.1949
93.6374 100 52.6526
93.9169 100 49.9668
96.9652 100 49.4309
105.252 100 35.443
104.245 100 40.7288
105.522 100 37.5674
106.084 100 38.6384
108.223 100 39.4883
109.828 100 38.8102
108.218 100 35.8324
113.503 100 20.2696
114.693 100 19.1272
113.096 100 32.2365
115.68 100 38.5529
116.767 100 37.8399
117.87 100 38.291
119.963 100 39.0353
118.947 100 38.5098
119.402 100 35.532
126.799 100 50.2561
129.457 100 51.8231
130.152 100 52.7681
132.831 100 54.7494
131.77 100 55.0998
131.589 100 56.4108
131.313 100 57.4151
132.65 100 60.1896
131.504 100 60.6779
138.146 100 74.6274
139.12 100 77.5059
140.262 100 77.2393
141.275 100 77.3605
142.265 100 76.976
143.336 100 76.3396
144.451 100 75.9605
145.489 100 75.4835
146.52 100 75.0733
148.741 100 75.3117
149.782 100 74.7766
150.688 100 75.5116
151.654 100 74.9701
73.0785 100 75.9111
74.0583 100 76.5157
74.9337 100 75.8647
76.8304 100 75.8403
77.932 100 76.3576
79.1755 100 76.8826
80.1125 100 77.4817
81.1408 100 77.9664
82.1449 100 77.2742
83.4598 100 77.8946
84.1611 100 79.6805
87.5706 100 77.5517
87.8052 100 76.3695
94.7744 100 56.5654
91.4977 100 57.4716
90.6509 100 56.8279
95.2267 100 55.4385
94.8321 100 54.3838
94.702 100 52.2485
95.7961 100 52.5246
95.2902 100 51.0971
102.507 100 45.8602
104.611 100 39.4513
107.522 100 40.3665
107.154 100 39.189
108.538 100 40.857
109.311 100 39.846
110.802 100 39.6193
107.988 100 38.3997
110.32 100 22.37
109.246 100 22.7953
116.754 100 36.5486
113.491 100 37.994
114.802 100 39.4335
116.614 100 39.0464
117.771 100 37.1929
117.646 100 39.5449
118.124 100 40.4993
123.638 100 46.1027
128.926 100 49.2161
128.817 100 50.9564
129.035 100 52.8336
132.291 100 53.7551
130.643 100 55.1077
129.696 100 55.8585
130.595 100 59.7117
130.951 100 58.6198
138.178 100 76.821
138.663 100 78.5115
140.287 100 79.7202
140.872 100 78.4079
142.053 100 78.0548
143.146 100 77.6018
144.489 100 77.0743
145.497 100 76.6952
146.684 100 76.1613
147.771 100 75.784
149.654 100 75.9015
150.749 100 76.5758
151.685 100 76.0937
72.8862 100 77.1651
74.0301 100 77.5864
75.054 100 77.1805
75.9081 100 76.4922
76.9241 100 77.0015
77.9807 100 77.569
79.0729 100 77.9848
80.0153 100 78.6352
81.2399 100 79.0502
82.2761 100 78.3928
83.2318 100 79.0372
85.3785 100 77.9859
86.9233 100 78.6573
86.7422 100 74.4117
89.0856 100 75.4392
93.6202 100 56.6133
95.942 100 56.3514
96.9804 100 56.1194
96.3014 100 55.3059
94.9525 100 53.3093
96.3411 100 51.5873
98.1033 100 49.9388
102.665 100 44.7292
103.907 100 43.1002
105.858 100 39.766
106.558 100 41.026
108.035 100 43.0256
109.632 100 40.9987
112.044 100 39.1818
111.061 100 38.5554
114.466 100 38.4222
113.105 100 39.073
115.785 100 39.8151
115.213 100 40.7042
116.887 100 40.1928
118.766 100 39.53
119.258 100 40.6378
123.468 100 44.9614
126.268 100 51.2444
127.727 100 50.7999
128.2 100 51.8981
131.05 100 54.125
128.516 100 56.088
129.373 100 56.9065
130.46 100 56.6969
137.166 100 75.5165
140.78 100 70.4144
137.964 100 79.6305
139.734 100 78.7025
142.15 100 79.1616
143.196 100 78.746
144.108 100 79.2292
144.229 100 78.1066
145.459 100 77.9664
146.554 100 77.421
147.538 100 76.9399
148.615 100 76.5612
149.684 100 77.0471
150.543 100 77.5928
151.813 100 77.2717
71.9231 100 77.7179
73.1185 100 78.2538
75.0577 100 78.3259
76.0246 100 77.672
77.0923 100 78.1597
77.2411 100 80.3845
78.7337 100 79.5277
80.481 100 79.7579
81.4286 100 80.2756
82.257 100 79.4751
86.388 100 79.9863
86.4552 100 77.6917
88.3306 100 79.8193
87.9968 100 75.258
94.4105 100 57.5574
93.959 100 55.3051
95.4936 100 57.5444
98.1444 100 56.3096
95.9628 100 54.2164
96.6954 100 52.9809
96.9582 100 50.6279
100.091 100 51.4902
103.869 100 45.0998
105.414 100 40.9612
110.404 100 43.9811
108.672 100 41.994
104.85 100 45.7577
110.103 100 41.9644
104.522 100 47.051
105.965 100 45.6304
119.763 100 47.2863
117.418 100 46.6276
114.931 100 41.7588
116.218 100 45.8278
117.045 100 43.259
116.213 100 41.0946
117.219 100 41.5306
121.348 100 46.3289
123.276 100 47.3687
127.113 100 52.0478
127.916 100 52.9762
129.564 100 53.9928
128.014 100 55.0989
128.245 100 57.192
130.231 100 57.7998
129.769 100 58.8319
137.064 100 74.3962
131.105 100 77.1592
139.092 100 79.6222
142.16 100 80.2005
143.139 100 79.8999
144.091 100 80.4052
145.15 100 79.8943
146.084 100 79.013
146.981 100 79.6975
147.295 100 78.2965
148.316 100 77.6369
149.516 100 78.2208
151.325 100 78.4725
152.609 100 78.0432
72.0597 100 78.9296
73.0439 100 79.4028
74.0955 100 78.7806
75.1374 100 79.3407
76.0814 100 78.8585
76.0943 100 79.9827
77.2054 100 79.2817
79.7392 100 80.586
80.644 100 81.066
81.9026 100 81.2838
82.8773 100 80.5069
82.9757 100 81.8769
85.7577 100 78.9755
85.102 100 80.4329
83.6333 100 83.0896
90.3007 100 78.3468
95.3584 100 59.4571
96.6388 100 57.186
98.6153 100 54.5782
97.7033 100 55.2247
97.7057 100 53.7004
97.8114 100 52.3627
103.552 100 46.196
104.452 100 41.8752
107.536 100 41.6311
109.265 100 43.4779
106.912 100 42.581
104.178 100 48.2223
105.871 100 47.7528
107.524 100 48.7637
118.87 100 46.584
120.709 100 47.8441
121.507 100 48.5884
118.4 100 43.5368
117.296 100 44.3353
117.942 100 42.4174
118.688 100 41.5788
122.449 100 46.3195
125.345 100 52.1133
128.539 100 54.1038
127.193 100 53.9
125.906 100 54.2325
126.631 100 56.7441
128.919 100 58.0831
131.216 100 76.0426
140.852 100 82.1786
140.457 100 80.9431
139.307 100 80.6876
141.494 100 81.0509
141.964 100 82.0896
142.692 100 81.2789
145.082 100 81.0396
146.262 100 81.491
146.073 100 80.4033
148.116 100 80.1087
148.391 100 78.7868
149.136 100 79.4914
150.261 100 78.9563
151.357 100 79.6005
152.251 100 79.1928
71.8793 100 79.9111
73.2988 100 80.5681
74.1504 100 79.9604
75.0384 100 80.6587
76.4622 100 82.29
74.3237 100 83.5039
76.4143 100 81.1802
78.6198 100 80.6264
79.3267 100 81.6424
78.3511 100 82.1837
80.7815 100 82.2246
80.9453 100 83.3856
81.9116 100 82.7438
82.682 100 83.7038
84.3194 100 81.2587
88.329 100 78.7727
96.4585 100 59.3644
96.2593 100 58.2997
99.0979 100 55.9306
100.033 100 52.7447
98.033 100 51.1168
[...]
POINT_DATA 1600
SCALARS mass double
LOOKUP_TABLE default
1
1
1
1
1
1
1
1
1
1
1
1
1
1
1
1
1
1
1
1
1
1
1
1
1
1
1
1
1
1
1
1
1
1
1
1
1
1
1
1
1
1
1
1
1
1
1
1
1
1
1
1
1
1
1
1
1
1
1
1
1
1
1
1
1
1
1
1
1
1
1
1
1
1
1
1
1
1
1
1
1
1
1
1
1
1
1
1
1
1
1
1
1
1
1
1
1
1
1
1
1
1
1
1
1
1
1
1
1
1
1
1
1
1
1
1
1
1
1
1
1
1
1
1
1
1
1
1
1
1
1
1
1
1
1
1
1
1
1
1
1
1
1
1
1
1
1
1
1
1
1
1
1
1
1
1
1
1
1
1
1
1
1
1
1
1
1
1
1
1
1
1
1
1
1
1
1
1
1
1
1
1
1
1
1
1
1
1
1
1
1
1
1
1
1
1
1
1
1
1
1
1
1
1
1
1
1
1
1
1
1
1
1
1
1
1
1
1
1
1
1
1
1
1
1
1
1
1
1
1
1
1
1
1
1
1
1
1
1
1
1
1
1
1
1
1
1
1
1
1
1
1
1
1
1
1
1
1
1
1
1
1
1
1
1
1
1
1
1
1
1
1
1
1
1
1
1
1
1
1
1
1
1
1
1
1
1
1
1
1
1
1
1
1
1
1
1
1
1
1
1
1
1
1
1
1
1
1
1
1
1
1
1
1
1
1
1
1
1
1
1
1
1
1
1
1
1
1
1
1
1
1
1
1
1
1
1
1
1
1
1
1
1
1
1
1
1
1
1
1
1
1
1
1
1
1
1
1
1
1
1
1
1
1
1
1
1
1
1
1
1
1
1
1
1
1
1
1
1
1
1
1
1
1
1
1
1
1
1
1
1
1
1
1
1
1
1
1
1
1
1
1
1
1
1
1
1
1
1
1
1
1
1
1
1
1
1
1
1
1
1
1
1
1
1
1
1
1
1
1
1
1
1
1
1
1
1
1
1
1
1
1
1
1
1
1
1
1
1
1
1
1
1
1
1
1
1
1
1
1
1
1
1
1
1
1
1
1
1
1
1
1
1
1
1
1
1
1
1
1
1
1
1
1
1
1
1
1
1
1
1
1
1
1
1
1
1
1
1
1
1
1
1
1
1
1
1
1
1
1
1
1
1
1
1
1
1
1
1
1
1
1
1
1
1
1
1
1
1
1
1
1
1
1
1
1
1
1
1
1
1
1
1
1
1
1
1
1
1
1
1
1
1
1
1
1
1
1
1
1
1
1
1
1
1
1
1
1
1
1
1
1
1
1
1
1
1
1
1
1
1
1
1
1
1
1
1
1
1
1
1
1
1
1
1
1
1
1
1
1
1
1
1
1
1
1
1
1
1
1
1
1
1
1
1
1
1
1
1
1
1
1
1
1
1
1
1
1
1
1
1
1
1
1
1
1
1
1
1
1
1
1
1
1
1
1
1
1
1
1
1
1
1
1
1
1
1
1
1
1
1
1
1
1
1
1
1
1
1
1
1
1
1
1
1
1
1
1
1
1
1
1
1
1
1
1
1
1
1
1
1
1
1
1
1
1
1
1
1
1
1
1
1
1
1
1
1
1
1
1
1
1
1
1
1
1
1
1
1
1
1
1
1
1
1
1
1
1
1
1
1
1
1
1
1
1
1
1
1
1
1
1
1
1
1
1
1
1
1
1
1
1
1
1
1
1
1
1
1
1
1
1
1
1
1
1
1
1
1
1
1
1
1
1
1
1
1
1
1
1
1
1
1
1
1
1
1
1
1
1
1
1
1
1
1
1
1
1
1
1
1
1
1
1
1
1
1
1
1
1
1
1
1
1
1
1
1
1
1
1
1
1
1
1
1
1
1
1
1
1
1
1
1
1
1
1
1
1
1
1
1
1
1
1
1
1
1
1
1
1
1
1
1
1
1
1
1
1
1
1
1
1
1
1
1
1
1
1
1
1
1
1
1
1
1
1
1
1
1
1
1
1
1
1
1
1
1
1
1
1
1
1
1
1
1
1
1
1
1
1
1
1
1
1
1
1
1
1
1
1
1
1
1
1
1
1
1
1
1
1
1
1
1
1
1
1
1
1
1
1
1
1
1
1
1
1
1
1
1
1
1
1
1
1
1
1
1
1
1
1
1
1
1
1
1
1
1
1
1
1
1
1
1
1
1
1
1
1
1
1
1
1
1
1
1
1
1
1
1
1
1
1
1
1
1
1
1
1
1
1
1
1
1
1
1
1
1
1
1
1
1
1
1
1
1
1
1
1
1
1
1
1
1
1
1
1
1
1
1
1
1
1
1
1
1
1
1
1
1
1
1
1
1
1
1
1
1
1
1
1
1
1
1
1
1
1
1
1
1
1
1
1
1
1
1
1
1
1
1
1
1
1
1
1
1
1
1
1
1
1
1
1
1
1
1
1
1
1
1
1
1
1
1
1
1
1
1
1
1
1
1
1
1
1
1
1
1
1
1
1
1
1
1
1
1
1
1
1
1
1
1
1
1
1
1
1
1
1
1
1
1
1
1
1
1
1
1
1
1
1
1
1
1
1
1
1
1
1
1
1
1
1
1
1
1
1
1
1
1
1
1
1
1
1
1
1
1
1
1
1
1
1
1
1
1
1
1
1
1
1
1
1
1
1
1
1
1
1
1
1
1
1
1
1
1
1
1
1
1
1
1
1
1
1
1
1
1
1
1
1
1
1
1
1
1
1
1
1
1
1
1
1
1
1
1
1
1
1
1
1
1
1
1
1
1
1
1
1
1
1
1
1
1
1
1
1
1
1
1
1
1
1
1
1
1
1
1
1
1
1
1
1
1
1
1
1
1
1
1
1
1
1
1
1
1
1
1
1
1
1
1
1
1
1
1
1
1
1
1
1
1
1
1
1
1
1
1
1
1
1
1
1
1
1
1
1
1
1
1
1
1
1
1
1
1
1
1
1
1
1
1
1
1
1
1
1
1
1
1
1
1
1
1
1
1
1
1
1
1
1
1
1
1
1
1
1
1
1
1
1
1
1
1
1
1
1
1
1
1
1
1
1
1
1
1
1
1
1
1
1
1
1
1
1
1
1
1
1
1
1
1
1
1
1
1
1
1
1
1
1
1
1
1
1
1
1
1
1
1
1
1
1
1
1
1
1
1
1
1
1
1
1
1
1
1
1
1
1
1
1
1
1
1
1
1
1
1
1
1
1
1
1
1
1
1
1
1
1
1
1
1
1
1
1
1
1
1
1
1
1
1
1
1
1
1
1
1
1
1
1
1
1
1
1
1
1
1
1
1
1
1
1
1
1
1
1
1
1
1
1
1
1
1
1
1
1
1
1
1
1
1
1
1
1
1
1
1
1
1
1
1
1
1
1
1
1
1
1
1
1
1
1
1
1
1
1
1
1
1
1
1
1
1
1
1
1
1
1
1
1
1
1
1
1
1
1
1
1
1
1
1
1
1
1
1
1
1
1
1
1
1
1
1
1
1
1
1
1
1
1
1
1
1
1
1
1
1
1
1
1
1
1
1
1
1
1
1
1
1
1
1
1
1
1
1
1
1
1
1
1
1
1
1
1
1
1
1
1
1
1
1
1
1
1
1
1
1
1
1
1
VECTORS force double
-4.18458 0 22.8793
1.71716 0 16.2427
-42.1229 0 -19.1157
49.8361 0 -58.5332
-4.91361 0 3.56149
-25.8249 0 40.6344
23.0954 0 -4.5331
19.3339 0 -4.46943
-14.8792 0 -7.91169
-6.40363 0 13.0631
-23.2094 0 7.82338
8.87087 0 -2.60887
-8.43852 0 -16.5914
13.8667 0 -5.37043
0 0 0
21.649 0 1.42789
21.253 0 15.2686
12.6618 0 1.71777
0 0 0
10.0062 0 17.3071
-3.71499 0 -17.1201
-18.9743 0 -27.6936
20.7984 0 -20.8699
-3.91235 0 6.29616
16.3966 0 -13.7073
-3.57972 0 -15.8113
0.362333 0 3.17992
-4.53195 0 1.98129
1.22726 0 -9.1673
15.1971 0 5.95389
-7.61798 0 14.6618
-3.21934 0 4.76214
6.07477 0 15.6104
-0.696797 0 6.02586
129.206 0 -6.51122
-2.34341 0 -6.07267
21.2275 0 27.7499
6.37058 0 17.8954
-70.3778 0 103.82
28.8116 0 20.0395
-5.2532 0 -17.0574
0 0 0
-0.991613 0 5.3032
-38.924 0 -9.16108
5.271 0 -22.1634
-0.971158 0 -1.04429
-13.2848 0 10.7007
0.835359 0 5.14777
9.74082 0 -6.74325
-13.4431 0 -16.4283
10.5184 0 13.9475
19.907 0 -8.1712
4.6277 0 1.18548
-9.96706 0 -1.82697
32.9451 0 -15.5653
-63.3663 0 35.6413
72.9352 0 -26.114
0.57014 0 25.1848
1.96686 0 13.311
-6.42162 0 2.18195
5.8572 0 -57.6703
20.9173 0 -38.2848
-7.30183 0 56.7382
3.48917 0 6.32749
10.4683 0 -51.329
-20.3513 0 5.28005
22.1355 0 -2.14124
4.95143 0 22.6749
-6.77408 0 21.8364
-18.5418 0 -4.38457
-1.22631 0 -4.01389
103.185 0 44.9734
9.25269 0 -17.3013
-34.7644 0 30.3822
-2.79386 0 3.1446
-95.1732 0 -41.0321
16.2335 0 -22.1863
-105.306 0 3.93235
82.3447 0 -2.19144
-27.5511 0 -60.6031
6.85617 0 29.3011
0 0 0
-0.352919 0 -6.30047
-3.66939 0 20.7948
-19.0705 0 3.72209
-4.58256 0 19.1752
-37.4323 0 32.5775
3.19207 0 -13.3254
0 0 0
0.940649 0 -15.5483
6.33032 0 5.29058
0 0 0
6.34468 0 -10.6209
60.8082 0 -53.7096
35.4463 0 -154.42
-16.0611 0 -9.42881
-49.1014 0 -39.3224
61.3665 0 83.6317
0 0 0
1.45361 0 8.41143
-31.0192 0 27.3723
-10.949 0 -0.286486
7.60984 0 4.17752
-35.0106 0 21.7712
3.65831 0 9.2355
19.5066 0 34.9728
-10.077 0 -8.05977
16.2783 0 -6.21293
11.9648 0 -4.86748
17.6312 0 16.5597
-9.76706 0 -10.9481
66.7029 0 -35.5419
6.62161 0 -1.93852
-35.4181 0 23.8899
-18.054 0 -25.3363
-4.33444 0 7.77077
-37.4898 0 3.28591
-18.9962 0 -15
-14.1397 0 10.3159
1.43159 0 -0.768098
5.59986 0 58.7494
12.7321 0 59.969
-16.3915 0 3.95444
4.16302 0 -48.1273
16.8793 0 25.1888
-1.74587 0 -20.4251
-13.0701 0 -27.1809
-9.55644 0 4.48027
-5.58405 0 -3.6445
5.73096 0 -2.35286
2.58016 0 29.0343
107.982 0 -17.418
-1.84146 0 30.5348
-11.8258 0 7.3484
10.8655 0 -10.531
3.50392 0 23.9494
-8.1298 0 7.30377
4.18449 0 6.0392
12.5112 0 10.8023
-33.6819 0 10.4967
33.9169 0 7.01687
9.45822 0 -2.67555
8.20586 0 -1.11897
2.21789 0 8.28071
0 0 0
-10.2302 0 -0.696001
-5.70657 0 20.9194
4.59798 0 16.6769
2.24442 0 -4.07708
-16.2564 0 -5.69569
-20.9012 0 31.2685
21.5427 0 -30.0648
-14.8545 0 6.40197
0 0 0
-27.9007 0 -49.527
-14.4735 0 -2.64855
43.5613 0 51.269
1.31024 0 -0.803008
-6.23906 0 3.19883
5.76262 0 -16.6282
-3.4771 0 30.8063
-4.58623 0 16.8681
42.3718 0 -37.4352
-15.9452 0 5.60748
-16.7661 0 -4.24521
12.8073 0 -10.3935
-6.13273 0 24.4867
4.20784 0 -4.25131
-10.7387 0 -2.97003
-103.356 0 35.1032
9.48855 0 -0.197512
17.2086 0 20.623
-16.5457 0 10.3033
11.5372 0 -20.9663
28.8952 0 -6.26908
5.90747 0 -86.0323
11.879 0 -36.4912
2.55672 0 -96.7376
72.5326 0 3.67975
-15.9216 0 -17.7147
21.3132 0 -4.32911
-9.94577 0 -11.7426
-11.3429 0 -3.35221
-10.5888 0 55.4934
0.48057 0 42.6693
16.1724 0 -30.063
46.4303 0 -6.74336
-4.93137 0 0.485411
-13.8821 0 -11.1448
1.54202 0 -50.6172
-8.09215 0 1.03829
5.36461 0 -41.48
-12.161 0 0.953896
25.2543 0 -23.2472
11.7854 0 13.747
6.40952 0 -19.4563
5.58628 0 8.81282
-47.3929 0 -28.8782
-31.3395 0 -2.97398
4.53184 0 -0.783163
4.93161 0 -6.15296
-3.31344 0 22.2726
10.2644 0 14.4138
16.7528 0 0.213149
13.1584 0 -7.6743
8.38589 0 -3.95151
12.1538 0 13.2546
14.3057 0 13.057
-19.2076 0 2.20261
-92.13 0 -49.8477
-35.0995 0 100.944
0 0 0
-40.3882 0 -3.20704
9.33099 0 6.0378
-13.5502 0 11.7423
-14.8336 0 -9.745
27.6081 0 -63.3001
-16.2639 0 -56.2838
-8.47334 0 5.77922
14.4109 0 11.8777
0.962219 0 -4.07346
-1.99776 0 -4.39989
-2.55984 0 2.1762
19.1418 0 -53.4296
-40.9174 0 67.3665
-8.58798 0 -8.64293
-9.93801 0 -19.7729
-2.06336 0 15.8398
12.0275 0 -13.6377
-76.7948 0 -2.90477
18.9685 0 1.79923
19.457 0 -37.1042
-4.27556 0 9.02039
-5.58188 0 13.1366
-1.95819 0 56.0979
10.4512 0 -11.4139
-0.984509 0 29.9443
-42.0064 0 119.473
-2.89103 0 -39.026
-1.82434 0 -1.42993
-10.8753 0 18.5234
-13.1341 0 -20.175
28.1233 0 -1.01867
15.6505 0 -3.59044
-22.9625 0 23.3708
-50.6726 0 43.265
9.38729 0 4.12461
6.37217 0 -16.8744
4.78096 0 9.44815
-106.071 0 80.3781
5.97141 0 1.38827
-4.14349 0 -4.94354
-100.186 0 -15.8727
25.0679 0 -42.08
23.4066 0 17.5208
-25.3911 0 -6.90351
-24.4599 0 10.9791
36.499 0 33.5914
-6.63305 0 -27.2019
-106.511 0 -31.2334
-24.6211 0 44.4851
-0.121156 0 2.06008
12.2873 0 13.3949
-9.18603 0 4.93676
-14.3843 0 -1.30488
-11.6964 0 -5.63301
-2.37565 0 10.7913
-7.838 0 1.13213
-15.5233 0 -13.7121
8.56731 0 10.7407
13.8747 0 12.8118
12.5133 0 18.2715
-28.1596 0 -4.54757
-15.0754 0 13.6946
43.7478 0 16.3383
-69.2684 0 -3.383
79.395 0 -119.83
9.03216 0 33.2954
-15.9552 0 6.21233
23.3314 0 2.97983
-4.04177 0 -19.8108
-13.7468 0 18.6732
-5.22187 0 3.44732
-20.3084 0 38.1517
2.33296 0 -12.4721
3.27189 0 -8.36642
7.52206 0 4.2854
20.8462 0 0.998052
-29.1839 0 17.7917
-13.6959 0 4.58775
-0.775045 0 -2.01006
41.6109 0 41.8329
21.9259 0 10.879
-17.736 0 -14.9058
28.4987 0 -12.4333
-5.26773 0 19.6696
-12.4207 0 91.6889
6.32489 0 23.8531
-30.0961 0 -5.86377
27.677 0 -11.3083
25.6193 0 -15.9652
-9.13587 0 40.913
-22.1102 0 -13.1719
5.65513 0 -10.7207
15.2483 0 -2.35205
27.6741 0 -33.1206
0.997041 0 4.23146
17.4211 0 0.784876
36.9858 0 -26.1177
-4.36343 0 -17.5815
30.0772 0 -21.8167
-28.0669 0 1.41319
8.63148 0 20.2029
-1.80067 0 3.54438
0.57021 0 13.0321
26.0865 0 -14.9951
-58.5722 0 8.31487
64.1387 0 18.4159
2.08424 0 -37.3649
6.74307 0 -2.09259
5.4441 0 -21.8015
-21.14 0 10.8796
13.9995 0 9.62958
-16.8149 0 -3.38398
-2.2522 0 6.15186
-0.66132 0 3.16609
3.68611 0 -16.9223
-12.5151 0 -25.3476
-43.5234 0 0.948558
-1.88836 0 -2.65823
25.5228 0 -10.3424
35.3533 0 -9.88322
65.9515 0 -17.5204
-36.6062 0 -1.49888
-92.3718 0 79.7642
-2.53016 0 65.764
-14.6121 0 -36.9905
-0.648317 0 9.07831
3.16987 0 13.7133
9.86346 0 15.9211
25.1991 0 -5.94815
23.3337 0 -26.6718
19.9574 0 12.6292
-17.3635 0 25.6368
9.07837 0 -8.30751
18.9299 0 7.03196
0 0 0
82.4464 0 -20.163
23.204 0 -6.51985
5.25675 0 -47.5683
-55.4493 0 -37.3572
57.2657 0 47.0967
-14.7306 0 29.54
-2.66834 0 -11.3542
-23.26 0 -2.1279
-25.6293 0 -43.5942
11.6002 0 -17.9769
-78.9159 0 -46.9896
66.4741 0 117.133
-30.2053 0 -5.82257
9.79056 0 18.6974
-19.4364 0 8.54962
22.8452 0 -109.813
12.623 0 15.5433
-42.2291 0 10.1802
-4.542 0 18.736
4.76469 0 -7.55967
-58.0151 0 25.4249
24.1169 0 -10.945
-17.7131 0 43.7797
-15.0797 0 -1.41708
-16.591 0 -29.6224
11.4727 0 45.8804
12.9476 0 -2.58452
-34.8973 0 23.6665
7.44641 0 8.96078
10.2654 0 -38.1727
-84.2227 0 27.781
-9.43343 0 -3.00785
103.124 0 46.7802
69.7749 0 12.1832
-4.11391 0 19.8861
-4.33246 0 3.37877
-5.1147 0 2.6895
-11.0773 0 -5.6304
-3.84683 0 -2.27185
-12.9501 0 14.3057
-0.290403 0 21.5988
2.21523 0 -6.02505
-1.07618 0 0.665097
-16.7813 0 0.43599
6.04007 0 0.387082
3.84946 0 7.25976
6.92034 0 2.70537
16.8781 0 -14.9784
4.49304 0 -3.66306
22.4331 0 -6.28085
-14.6005 0 -0.905682
-14.9737 0 -11.7675
-8.91462 0 2.67421
-8.26709 0 10.3768
70.6568 0 -21.08
-3.84531 0 -9.79788
1.85227 0 2.63219
-20.3122 0 -17.3722
17.2944 0 0.295414
-4.05118 0 0.547316
-14.3864 0 1.40004
2.00192 0 -22.0688
-54.9563 0 71.3599
51.7637 0 -43.6532
31.3457 0 13.8398
-42.9498 0 -23.0244
-6.3168 0 1.28573
7.06377 0 -3.69604
8.9708 0 -3.47195
38.5453 0 46.9843
-42.7823 0 -37.7091
3.781 0 -9.81643
-11.0592 0 17.2653
23.0982 0 -146.402
24.5256 0 12.4664
-23.9042 0 23.6159
-33.5765 0 111.776
41.7641 0 -30.8281
5.88675 0 11.9362
-15.3653 0 -6.23617
-69.3513 0 -34.7695
68.7245 0 39.0342
3.7969 0 7.47745
-12.497 0 -1.29833
-8.75475 0 -2.43472
20.9132 0 32.4809
-7.3587 0 -17.5194
-12.0098 0 2.36082
-10.8408 0 7.13174
0.592678 0 -3.56089
1.86363 0 25.4269
-25.4759 0 -4.97035
-6.50869 0 11.6849
-2.03555 0 -3.1622
-3.45832 0 -0.714077
22.6411 0 6.55999
15.6565 0 4.12368
12.6741 0 -10.6754
0.388651 0 -4.71004
1.33934 0 -8.54818
-2.07353 0 -8.95394
-5.1035 0 42.4522
56.6375 0 16.3849
-4.97445 0 8.22131
8.94007 0 -1.8591
14.0185 0 2.57106
-15.2822 0 -15.48
8.32726 0 0.899777
0.624007 0 14.3021
-95.2667 0 -19.0084
19.3675 0 14.9719
43.8394 0 -26.8305
-75.2944 0 -12.134
11.5855 0 2.85066
-17.424 0 30.9912
17.3591 0 -4.09648
7.26186 0 -8.74536
-14.8759 0 -11.335
-0.317606 0 -0.736325
-55.6627 0 -8.19801
8.55884 0 15.988
45.2379 0 33.363
10.7314 0 -24.9327
7.18908 0 -17.3332
24.5765 0 -8.28304
-16.5239 0 12.0263
30.7864 0 7.56301
-9.42887 0 -1.18316
-55.325 0 -55.0503
63.1119 0 45.6281
41.1157 0 42.8458
-157.914 0 81.1527
139.271 0 -105.849
-6.11916 0 119.892
-68.6373 0 -13.1717
35.5489 0 -34.7235
28.6509 0 -34.0593
-6.95468 0 -1.04083
-10.82 0 8.20656
-40.963 0 -27.7127
-6.25573 0 20.1731
5.49583 0 -12.7889
-5.30383 0 15.3067
8.82842 0 2.59814
14.9951 0 8.96795
-1.67953 0 -2.05027
1.56547 0 8.19796
-2.63195 0 -3.76826
-16.0269 0 -54.6551
-53.4178 0 -36.0787
24.3823 0 -3.79566
62.2981 0 -33.1121
1.71505 0 -19.7768
-5.34467 0 5.76572
5.14316 0 -27.6757
-9.27722 0 8.12117
30.6118 0 -21.8681
-62.3121 0 3.16405
-1.43065 0 -8.07169
12.316 0 0.0679628
5.51838 0 12.313
-96.9769 0 -63.0815
-17.5962 0 -25.6539
6.28914 0 9.46341
11.7056 0 -0.962639
-4.94432 0 12.1516
-21.4394 0 -3.2961
-5.1421 0 10.8348
-17.4306 0 15.1483
75.5027 0 25.934
7.46208 0 11.7291
-4.91214 0 -15.9888
-92.4348 0 26.5895
-17.6972 0 -6.94503
30.7509 0 116.874
9.13195 0 -5.41452
-8.16434 0 -0.287779
10.3571 0 8.51174
-1.38037 0 -7.4516
2.64014 0 -7.63165
-33.7956 0 -5.13712
-17.8944 0 -41.9451
1.77043 0 2.07907
6.38604 0 -3.88196
11.2368 0 -16.8646
21.4446 0 4.41688
14.4031 0 1.71401
28.6949 0 3.70016
77.6883 0 -57.8162
21.8902 0 1.15773
-50.5837 0 -46.1608
50.7053 0 31.7331
-17.5507 0 29.4766
12.8661 0 0.383873
12.8417 0 -42.1206
14.7183 0 40.9775
94.9426 0 77.8596
3.18563 0 19.569
24.3523 0 9.67972
8.67676 0 -5.54754
-27.2922 0 -15.5042
18.6214 0 31.0797
4.63876 0 -5.12309
-2.65486 0 -0.854371
-17.4829 0 15.5908
39.0638 0 88.5078
45.4123 0 -36.3586
18.5433 0 -49.5973
7.67673 0 9.96192
0.884841 0 -9.49159
88.859 0 12.7656
-9.69496 0 9.39643
-32.5481 0 13.8354
-23.8958 0 -42.8928
12.6228 0 14.8826
2.92331 0 -4.27824
3.52108 0 -20.3801
14.6238 0 5.18989
-32.7923 0 20.8135
-20.0306 0 9.6997
10.9206 0 21.3475
-25.9019 0 2.61133
-0.512422 0 -12.6027
-1.5972 0 -11.5563
10.3822 0 69.1463
-4.3629 0 -14.3188
75.1793 0 -4.02137
19.2137 0 -31.0697
60.5067 0 -17.2144
18.3013 0 16.6221
89.446 0 -36.2851
12.6923 0 -9.99967
14.3393 0 -2.651
-53.9108 0 -117.491
8.41636 0 -20.0224
-3.00922 0 -5.51194
-6.93169 0 -4.09777
-6.24632 0 13.3619
2.94837 0 -13.2714
-19.1846 0 54.5454
1.45903 0 -18.7607
56.3265 0 -69.8978
-19.9721 0 7.2686
-88.4691 0 68.9111
-37.8264 0 -36.6135
-17.0516 0 -32.3312
-13.1029 0 2.42107
-11.5134 0 1.4605
-28.7893 0 8.08202
30.0831 0 -27.6813
13.9023 0 5.18939
2.55537 0 -20.7099
-15.3678 0 -14.3888
7.15384 0 9.46223
-89.5712 0 -59.9197
8.26733 0 1.766
7.29103 0 13.5034
-127.345 0 -115.81
-3.17761 0 6.74906
-24.1612 0 2.62841
13.2324 0 19.8384
12.1568 0 -5.59068
-39.0199 0 -39.2816
5.69527 0 -7.77623
-87.738 0 -83.0712
7.48336 0 10.6928
-22.6889 0 10.7438
39.8884 0 -50.5719
12.6767 0 10.6062
0.342314 0 3.77245
22.1997 0 -26.9374
-7.92408 0 5.34578
4.5577 0 0.938052
43.8256 0 30.7192
21.8532 0 -60.763
58.4535 0 22.9026
6.1151 0 1.15426
-18.3159 0 -4.45936
27.8255 0 -40.4605
49.7564 0 4.73173
0.627494 0 -23.2794
-4.56723 0 9.05234
-18.2848 0 -44.6557
16.2826 0 56.2163
-138.595 0 -16.7394
54.805 0 -29.0321
-10.5747 0 11.8356
3.89005 0 -16.9531
-61.6242 0 -9.02954
-33.8794 0 25.073
8.81666 0 4.75931
-0.322914 0 22.8318
10.0183 0 -3.79263
-14.9647 0 4.01266
-13.3907 0 20.7593
-6.18788 0 79.3483
-47.3994 0 -16.9849
93.2198 0 -28.1342
10.0666 0 3.51024
14.0697 0 5.09032
7.92665 0 20.1467
-24.2246 0 -7.65913
-50.4854 0 5.28188
9.22652 0 -44.6807
-53.8355 0 37.5506
59.0812 0 -2.89849
2.88164 0 -8.55953
-15.4856 0 57.116
2.99103 0 -8.48192
-17.2528 0 -43.2682
5.9694 0 56.2379
40.807 0 -173.271
0.850405 0 -6.52689
3.26484 0 13.3405
-1.71999 0 -5.60419
-6.91985 0 -0.688626
-60.4121 0 -144.09
119.89 0 119.307
87.3612 0 125.291
-0.15935 0 9.08572
0.342914 0 -14.9027
-44.5318 0 5.27841
-43.0602 0 -102.403
33.4992 0 39.855
32.5493 0 -9.63354
-20.7991 0 17.363
-9.69768 0 -8.41067
-2.24851 0 6.11983
9.61158 0 1.04221
16.8861 0 3.89496
12.5753 0 3.66726
17.688 0 -6.983
9.01225 0 -11.7751
3.8552 0 2.84948
6.38446 0 14.8167
-3.52705 0 71.5918
30.3903 0 -15.3839
-25.2337 0 10.8074
-15.3859 0 27.8732
2.71776 0 -14.6165
-3.3345 0 -10.7978
18.0995 0 -0.15877
-17.6186 0 -1.73757
-4.29547 0 6.53978
54.502 0 -49.3741
8.7933 0 0.299329
13.058 0 -16.2194
-24.0171 0 -13.6819
5.33663 0 -19.4981
-20.0828 0 -2.9728
-6.87307 0 -26.2617
37.078 0 -1.49578
16.8088 0 20.6966
-6.21196 0 -0.925151
-8.0237 0 4.08517
33.6439 0 -39.9459
0.847403 0 6.08788
4.88098 0 -7.46929
-6.2664 0 -14.6489
-1.07919 0 -9.39294
16.8464 0 12.1329
-4.05585 0 46.8617
6.14165 0 100.104
30.3986 0 18.7838
116.134 0 -89.165
-0.137126 0 -2.20897
-3.15673 0 27.7368
-13.7719 0 -5.87037
-8.09862 0 -23.2623
0.94502 0 13.5112
-5.87204 0 14.7272
-51.9754 0 170.232
-0.95561 0 0.967155
-36.6175 0 -57.9091
0.204415 0 8.5972
1.68938 0 1.7311
59.2581 0 57.4097
-47.6612 0 27.0738
-3.36674 0 -4.93002
46.0784 0 -5.8335
-0.373334 0 -7.04629
2.27476 0 16.3706
56.2706 0 -0.605143
38.0428 0 101.047
-13.6053 0 -2.74033
-9.25349 0 -7.14484
-11.3878 0 -16.6314
-56.7882 0 41.1542
-3.03441 0 5.03993
-2.37064 0 -23.2247
-7.1634 0 6.43664
-19.3181 0 32.0937
-75.5794 0 77.6616
1.41031 0 -2.47273
-3.83353 0 -23.6094
-9.21842 0 -54.7374
21.2203 0 -0.118542
-6.44048 0 -9.71087
36.5098 0 2.25595
-8.66573 0 13.0524
25.909 0 -27.7118
36.7683 0 47.8303
0.730501 0 -22.0711
-26.4421 0 44.5517
13.3851 0 20.812
7.32213 0 -10.3739
-5.09872 0 -21.1285
18.2482 0 49.6597
6.17959 0 10.8909
11.1056 0 -23.9889
-0.238165 0 -14.8323
6.17216 0 30.2681
-16.8033 0 0.536101
-19.7088 0 -14.2412
-19.5644 0 -30.6419
-29.311 0 -11.0215
22.8337 0 17.0761
-95.9775 0 39.954
-18.9824 0 -22.9942
11.8862 0 -6.19211
-51.7335 0 -90.2261
-14.5642 0 -7.03889
16.1491 0 -4.65563
7.43774 0 -18.2647
19.0326 0 -29.9981
24.014 0 -59.9946
-38.3145 0 -26.2192
-4.01564 0 -13.449
50.2978 0 -14.467
42.5407 0 4.37951
14.0006 0 -6.33214
2.77813 0 13.6544
-22.951 0 5.99763
19.7689 0 -16.7026
10.9674 0 6.26273
15.0034 0 -4.60701
-18.4489 0 2.52281
22.3294 0 4.85903
-27.8822 0 -32.6318
-5.09704 0 2.37952
-5.56777 0 -16.055
-5.32145 0 8.02297
-2.66112 0 5.32622
19.4355 0 14.7043
8.13262 0 -0.778952
-44.2048 0 12.1168
-0.092742 0 -9.65231
3.10994 0 -12.7255
15.9938 0 6.24284
17.1632 0 30.2459
12.8099 0 6.56226
4.42305 0 -5.26136
-25.1912 0 -2.8359
1.51632 0 12.888
10.3201 0 -0.515312
5.85143 0 13.6279
11.5324 0 57.7359
-29.2954 0 -28.9808
-4.22774 0 -24.4894
-6.85451 0 3.17299
-12.1761 0 3.97147
-4.03372 0 11.6051
2.06865 0 -10.414
16.8276 0 6.35499
-1.23126 0 12.1947
-92.7003 0 -17.0602
13.0106 0 9.40184
17.5219 0 4.83216
-33.4239 0 7.705
2.79446 0 5.68781
55.9455 0 4.67356
-82.159 0 -23.7097
58.9326 0 18.7379
15.7466 0 -3.68301
29.6947 0 27.9027
-2.94488 0 4.09454
-4.25736 0 7.84163
-12.0402 0 -23.6418
30.6823 0 13.4947
-66.4413 0 185.758
-4.09117 0 0.192101
102.174 0 -108.726
-1.07069 0 -1.46926
-91.7683 0 102.812
66.5983 0 5.21703
-27.9958 0 41.5519
-4.54969 0 -2.75754
-35.8573 0 55.5087
-41.3022 0 9.33023
-8.87505 0 -26.968
-27.0659 0 -121.567
22.1645 0 -24.3335
13.9134 0 0.960876
0.309376 0 24.2839
3.29521 0 -8.83328
-4.07808 0 7.44251
-1.7897 0 -6.97081
8.3339 0 -0.20554
-34.0362 0 39.9771
12.9985 0 -55.3358
33.2702 0 8.33604
42.3421 0 18.7159
23.1555 0 -7.08355
-3.31874 0 -11.399
20.3584 0 -10.2635
-7.90896 0 -6.01535
-46.9747 0 25.3833
-23.6098 0 -40.476
8.13224 0 -4.25253
-1.46264 0 -13.4109
-22.5357 0 -22.669
-4.38795 0 -3.6158
7.3709 0 -2.16209
85.2999 0 -66.6318
-14.9853 0 -0.489381
6.16881 0 -20.6629
-14.4395 0 73.0845
-12.6261 0 20.5717
10.0756 0 -24.0132
-12.3013 0 9.29894
-0.212171 0 0.0346594
1.96507 0 -1.19105
6.44048 0 9.71087
-8.90291 0 0.552334
-7.92466 0 -6.90732
-35.6531 0 22.1906
45.0452 0 -8.13741
-10.2126 0 12.8321
-6.3582 0 -5.16328
-5.11377 0 -11.7658
-0.739561 0 -21.2515
4.45777 0 -7.11001
5.27038 0 3.90542
-18.0882 0 3.67572
-3.09797 0 -1.46944
4.36865 0 -10.4399
-0.256475 0 -4.01562
-28.5023 0 -44.8526
-11.5153 0 -13.2862
-20.189 0 34.6438
-99.0981 0 57.6547
-1.46605 0 -27.3823
-0.309746 0 19.5134
14.8817 0 -14.9014
-31.6811 0 -124.538
22.7813 0 129.682