# vtk DataFile Version 3.0
SiWiRVisFile
ASCII
DATASET UNSTRUCTURED_GRID
POINTS 1600 DOUBLE
78.8299 100 75.6337
79.8921 100 76.0741
81.0234 100 76.3761
82.6773 100 75.9075
83.7011 100 76.254
84.7643 100 76.3978
85.8647 100 76.569
86.9177 100 76.7688
87.9996 100 76.9628
89.0383 100 77.0234
90.0734 100 77.2219
91.1146 100 77.4256
92.0037 100 76.6976
93.0774 100 76.2877
94.0326 100 75.7442
95.3404 100 75.0697
96.5739 100 74.6009
97.5804 100 75.0226
98.5653 100 73.7188
100.014 100 74.4271
103.382 100 67.3053
103.155 100 69.7356
103.373 100 68.5962
104.728 100 68.6031
105.562 100 67.8556
106.667 100 67.7355
108.542 100 68.0372
109.565 100 67.7704
110.65 100 67.3667
111.643 100 66.5754
112.849 100 66.5754
113.842 100 67.3667
114.927 100 67.7704
115.95 100 68.0372
117.826 100 67.7355
118.931 100 67.8556
119.764 100 68.6031
121.119 100 68.5962
121.337 100 69.7356
121.111 100 67.3053
124.478 100 74.4271
125.927 100 73.7188
126.912 100 75.0226
127.919 100 74.6009
129.152 100 75.0697
130.46 100 75.7442
131.415 100 76.2877
132.489 100 76.6976
133.378 100 77.4256
134.419 100 77.2219
135.454 100 77.0234
136.493 100 76.9628
137.575 100 76.7688
138.628 100 76.569
139.728 100 76.3978
140.791 100 76.254
141.815 100 75.9075
143.469 100 76.3761
144.6 100 76.0741
145.662 100 75.6337
79.0847 100 76.8612
80.1847 100 77.1048
82.0175 100 76.7695
82.999 100 77.0978
84.1033 100 77.2994
85.0642 100 77.5475
86.1765 100 77.7391
87.3121 100 77.8786
88.3927 100 77.9439
89.4378 100 78.0691
90.4441 100 78.3626
91.523 100 78.4211
92.4475 100 77.7319
93.7508 100 77.2935
94.7249 100 76.7926
95.5426 100 76.1411
96.5493 100 75.6386
99.0185 100 74.8358
100.023 100 75.6154
101.227 100 74.62
102.005 100 69.6316
101.608 100 73.1646
103.822 100 72.2713
106.839 100 70.5663
105.653 100 69.1413
106.687 100 68.8125
107.796 100 68.9204
109.274 100 68.8666
110.406 100 68.4717
111.651 100 67.9819
112.842 100 67.9819
114.086 100 68.4717
115.218 100 68.8666
116.696 100 68.9204
117.805 100 68.8125
118.84 100 69.1413
117.653 100 70.5663
120.67 100 72.2713
122.884 100 73.1646
122.487 100 69.6316
123.265 100 74.62
124.469 100 75.6154
125.474 100 74.8358
127.943 100 75.6386
128.95 100 76.1411
129.768 100 76.7926
130.742 100 77.2935
132.045 100 77.7319
132.969 100 78.4211
134.048 100 78.3626
135.055 100 78.0691
136.1 100 77.9439
137.18 100 77.8786
138.316 100 77.7391
139.428 100 77.5475
140.389 100 77.2994
141.493 100 77.0978
142.475 100 76.7695
144.308 100 77.1048
145.408 100 76.8612
79.4054 100 77.9207
80.4352 100 78.2884
81.1735 100 77.51
82.2549 100 77.8809
83.313 100 78.1823
84.3768 100 78.3524
85.4731 100 78.5923
86.6444 100 78.761
87.7136 100 78.926
88.8463 100 78.979
89.8474 100 79.3673
90.9311 100 79.4511
92.0313 100 79.3831
93.0401 100 78.7569
94.7518 100 78.1356
95.5699 100 77.4466
96.476 100 76.8455
97.9069 100 75.9855
98.9001 100 76.2274
101.051 100 75.7622
102.346 100 74.3917
103 100 73.4914
104.65 100 73.8094
105.747 100 73.5172
107.32 100 73.2329
108.252 100 73.5503
109.336 100 74.1775
109.427 100 72.6986
110.737 100 70.1166
111.294 100 69.1097
113.198 100 69.1097
113.755 100 70.1166
115.066 100 72.6986
115.157 100 74.1775
116.241 100 73.5503
117.172 100 73.2329
118.745 100 73.5172
119.842 100 73.8094
121.493 100 73.4914
122.147 100 74.3917
123.441 100 75.7622
125.592 100 76.2274
126.585 100 75.9855
128.016 100 76.8455
128.922 100 77.4466
129.741 100 78.1356
131.452 100 78.7569
132.461 100 79.3831
133.561 100 79.4511
134.645 100 79.3673
135.646 100 78.979
136.779 100 78.926
137.848 100 78.761
139.019 100 78.5923
140.116 100 78.3524
141.179 100 78.1823
142.237 100 77.8809
143.319 100 77.51
144.057 100 78.2884
145.087 100 77.9207
79.5481 100 78.9926
80.5579 100 79.3872
81.4524 100 78.6203
82.5018 100 78.9646
83.6221 100 79.3747
84.7693 100 79.3976
85.9002 100 79.5618
87.0055 100 79.7379
88.0891 100 79.9402
89.1256 100 80.1187
90.1859 100 80.5194
91.208 100 80.5294
92.2353 100 80.4245
93.2163 100 79.9135
94.0945 100 79.148
95.5148 100 78.8896
96.3817 100 78.3873
97.331 100 77.5256
98.3438 100 77.1358
99.5277 100 77.0965
100.536 100 76.8309
102.22 100 75.4386
103.312 100 74.5326
104.621 100 74.8871
105.751 100 74.57
107.195 100 74.3144
108.153 100 74.6653
110.026 100 75.2189
110.643 100 73.1377
111.723 100 70.8283
112.77 100 70.8283
113.849 100 73.1377
114.467 100 75.2189
116.34 100 74.6653
117.297 100 74.3144
118.742 100 74.57
119.871 100 74.8871
121.181 100 74.5326
122.272 100 75.4386
123.956 100 76.8309
124.965 100 77.0965
126.149 100 77.1358
127.161 100 77.5256
128.111 100 78.3873
128.978 100 78.8896
130.398 100 79.148
131.276 100 79.9135
132.257 100 80.4245
133.284 100 80.5294
134.307 100 80.5194
135.367 100 80.1187
136.403 100 79.9402
137.487 100 79.7379
138.592 100 79.5618
139.723 100 79.3976
140.87 100 79.3747
141.991 100 78.9646
143.04 100 78.6203
143.934 100 79.3872
144.944 100 78.9926
79.6865 100 80.121
80.6897 100 80.4978
81.5695 100 79.6568
82.9706 100 80.3388
84.1594 100 80.3342
85.2398 100 80.3423
86.3068 100 80.5434
87.4071 100 80.788
88.5139 100 80.9083
89.5333 100 81.3618
90.7272 100 81.516
91.9421 100 81.4535
93.1405 100 81.1015
94.0857 100 80.5131
94.9641 100 79.8577
96.2088 100 79.762
97.173 100 79.092
97.9601 100 78.3254
99.1027 100 78.2811
100.309 100 77.8749
101.771 100 76.7816
102.825 100 76.2427
104.237 100 76.0187
105.374 100 75.6781
106.569 100 75.5308
107.677 100 75.7172
108.784 100 75.9726
109.999 100 76.2331
110.687 100 74.3244
111.519 100 73.7159
112.974 100 73.7159
113.805 100 74.3244
114.493 100 76.2331
115.708 100 75.9726
116.815 100 75.7172
117.924 100 75.5308
119.118 100 75.6781
120.256 100 76.0187
121.667 100 76.2427
122.722 100 76.7816
124.183 100 77.8749
125.39 100 78.2811
126.532 100 78.3254
127.319 100 79.092
128.284 100 79.762
129.528 100 79.8577
130.407 100 80.5131
131.352 100 81.1015
132.55 100 81.4535
133.765 100 81.516
134.959 100 81.3618
135.978 100 80.9083
137.085 100 80.788
138.186 100 80.5434
139.253 100 80.3423
140.333 100 80.3342
141.522 100 80.3388
142.923 100 79.6568
143.803 100 80.4978
144.806 100 80.121
79.8936 100 81.2255
80.9185 100 81.5245
81.7388 100 80.7127
82.6118 100 81.4284
83.6225 100 81.2315
84.7185 100 81.4282
85.8079 100 81.4168
86.9294 100 81.824
87.9789 100 82.098
89.1367 100 82.3433
90.2103 100 82.4731
91.3046 100 82.424
92.3318 100 82.4478
93.5409 100 82.1857
94.5183 100 81.592
95.1535 100 80.8323
96.6338 100 80.8039
97.4888 100 80.2963
98.3901 100 79.2013
99.9937 100 78.9239
101.481 100 77.8615
102.686 100 77.5012
103.673 100 77.1048
104.781 100 77.1043
105.771 100 76.7579
106.957 100 76.6534
108.069 100 76.7795
109.254 100 77.0852
111.276 100 76.7158
111.282 100 75.2974
113.211 100 75.2974
113.216 100 76.7158
115.238 100 77.0852
116.423 100 76.7795
117.535 100 76.6534
118.722 100 76.7579
119.712 100 77.1043
120.819 100 77.1048
121.806 100 77.5012
123.012 100 77.8615
124.499 100 78.9239
126.102 100 79.2013
127.004 100 80.2963
127.859 100 80.8039
129.339 100 80.8323
129.974 100 81.592
130.951 100 82.1857
132.161 100 82.4478
133.188 100 82.424
134.282 100 82.4731
135.356 100 82.3433
136.513 100 82.098
137.563 100 81.824
138.685 100 81.4168
139.774 100 81.4282
140.87 100 81.2315
141.881 100 81.4284
142.754 100 80.7127
143.574 100 81.5245
144.599 100 81.2255
79.9791 100 82.2799
80.8832 100 82.7267
81.7928 100 82.0884
82.881 100 82.4506
83.9724 100 82.2316
85.3047 100 82.3895
86.3392 100 82.6759
87.4045 100 82.9066
88.4741 100 83.188
89.556 100 83.3318
90.7572 100 83.3448
91.8742 100 83.4569
93.0466 100 83.1246
94.3156 100 82.8587
95.4389 100 82.4391
95.8991 100 81.5437
97.6464 100 81.4073
98.4817 100 80.7004
99.2677 100 79.8484
101.132 100 78.8667
102.314 100 78.6293
103.454 100 78.2573
104.655 100 78.2081
105.71 100 77.8788
107.036 100 77.9669
108.091 100 77.8565
109.532 100 78.1974
110.298 100 77.357
110.56 100 78.4286
111.554 100 77.7378
112.938 100 77.7378
113.933 100 78.4286
114.195 100 77.357
114.96 100 78.1974
116.402 100 77.8565
117.456 100 77.9669
118.782 100 77.8788
119.838 100 78.2081
121.038 100 78.2573
122.179 100 78.6293
123.361 100 78.8667
125.225 100 79.8484
126.011 100 80.7004
126.846 100 81.4073
128.593 100 81.5437
129.053 100 82.4391
130.177 100 82.8587
131.446 100 83.1246
132.618 100 83.4569
133.735 100 83.3448
134.936 100 83.3318
136.018 100 83.188
137.088 100 82.9066
138.153 100 82.6759
139.188 100 82.3895
140.52 100 82.2316
141.611 100 82.4506
142.7 100 82.0884
143.609 100 82.7267
144.513 100 82.2799
80.0782 100 83.4364
81.0605 100 83.8317
81.8249 100 83.132
82.6579 100 83.6851
83.5566 100 83.2221
84.606 100 83.3126
85.6953 100 83.471
86.7611 100 83.754
87.8223 100 84.0675
88.9438 100 84.1966
89.9093 100 84.3275
90.9532 100 84.3832
92.007 100 84.5041
93.0178 100 84.3546
93.8899 100 83.8294
95.1592 100 83.4453
96.6597 100 82.1611
98.8137 100 81.7921
99.6135 100 80.9267
100.398 100 80.1434
102.133 100 80.3387
102.991 100 79.3564
104.23 100 79.3233
105.362 100 79.2279
106.455 100 79.2854
107.61 100 78.9883
108.502 100 79.5183
109.592 100 79.2541
110.744 100 79.5882
111.544 100 78.967
112.948 100 78.967
113.748 100 79.5882
114.9 100 79.2541
115.991 100 79.5183
116.883 100 78.9883
118.038 100 79.2854
119.13 100 79.2279
120.262 100 79.3233
121.502 100 79.3564
122.359 100 80.3387
124.094 100 80.1434
124.879 100 80.9267
125.679 100 81.7921
127.833 100 82.1611
129.333 100 83.4453
130.603 100 83.8294
131.475 100 84.3546
132.485 100 84.5041
133.539 100 84.3832
134.583 100 84.3275
135.549 100 84.1966
136.67 100 84.0675
137.731 100 83.754
138.797 100 83.471
139.886 100 83.3126
140.936 100 83.2221
141.835 100 83.6851
142.667 100 83.132
143.432 100 83.8317
144.414 100 83.4364
80.1735 100 84.5772
81.0932 100 85.1009
81.9664 100 84.5091
83.0879 100 84.6459
84.06 100 84.1783
85.1011 100 84.286
85.9837 100 84.8435
87.1278 100 84.878
88.2027 100 85.045
89.339 100 85.2074
90.4957 100 85.3284
91.5276 100 85.4557
92.6816 100 85.3491
93.7354 100 85.1007
94.7266 100 84.4896
95.9232 100 84.1354
96.3285 100 83.2131
97.494 100 82.8886
99.9861 100 82.4674
100.526 100 81.319
[...]
POINT_DATA 1600
SCALARS mass double
LOOKUP_TABLE default
1
1
1
1
1
1
1
1
1
1
1
1
1
1
1
1
1
1
1
1
1
1
1
1
1
1
1
1
1
1
1
1
1
1
1
1
1
1
1
1
1
1
1
1
1
1
1
1
1
1
1
1
1
1
1
1
1
1
1
1
1
1
1
1
1
1
1
1
1
1
1
1
1
1
1
1
1
1
1
1
1
1
1
1
1
1
1
1
1
1
1
1
1
1
1
1
1
1
1
1
1
1
1
1
1
1
1
1
1
1
1
1
1
1
1
1
1
1
1
1
1
1
1
1
1
1
1
1
1
1
1
1
1
1
1
1
1
1
1
1
1
1
1
1
1
1
1
1
1
1
1
1
1
1
1
1
1
1
1
1
1
1
1
1
1
1
1
1
1
1
1
1
1
1
1
1
1
1
1
1
1
1
1
1
1
1
1
1
1
1
1
1
1
1
1
1
1
1
1
1
1
1
1
1
1
1
1
1
1
1
1
1
1
1
1
1
1
1
1
1
1
1
1
1
1
1
1
1
1
1
1
1
1
1
1
1
1
1
1
1
1
1
1
1
1
1
1
1
1
1
1
1
1
1
1
1
1
1
1
1
1
1
1
1
1
1
1
1
1
1
1
1
1
1
1
1
1
1
1
1
1
1
1
1
1
1
1
1
1
1
1
1
1
1
1
1
1
1
1
1
1
1
1
1
1
1
1
1
1
1
1
1
1
1
1
1
1
1
1
1
1
1
1
1
1
1
1
1
1
1
1
1
1
1
1
1
1
1
1
1
1
1
1
1
1
1
1
1
1
1
1
1
1
1
1
1
1
1
1
1
1
1
1
1
1
1
1
1
1
1
1
1
1
1
1
1
1
1
1
1
1
1
1
1
1
1
1
1
1
1
1
1
1
1
1
1
1
1
1
1
1
1
1
1
1
1
1
1
1
1
1
1
1
1
1
1
1
1
1
1
1
1
1
1
1
1
1
1
1
1
1
1
1
1
1
1
1
1
1
1
1
1
1
1
1
1
1
1
1
1
1
1
1
1
1
1
1
1
1
1
1
1
1
1
1
1
1
1
1
1
1
1
1
1
1
1
1
1
1
1
1
1
1
1
1
1
1
1
1
1
1
1
1
1
1
1
1
1
1
1
1
1
1
1
1
1
1
1
1
1
1
1
1
1
1
1
1
1
1
1
1
1
1
1
1
1
1
1
1
1
1
1
1
1
1
1
1
1
1
1
1
1
1
1
1
1
1
1
1
1
1
1
1
1
1
1
1
1
1
1
1
1
1
1
1
1
1
1
1
1
1
1
1
1
1
1
1
1
1
1
1
1
1
1
1
1
1
1
1
1
1
1
1
1
1
1
1
1
1
1
1
1
1
1
1
1
1
1
1
1
1
1
1
1
1
1
1
1
1
1
1
1
1
1
1
1
1
1
1
1
1
1
1
1
1
1
1
1
1
1
1
1
1
1
1
1
1
1
1
1
1
1
1
1
1
1
1
1
1
1
1
1
1
1
1
1
1
1
1
1
1
1
1
1
1
1
1
1
1
1
1
1
1
1
1
1
1
1
1
1
1
1
1
1
1
1
1
1
1
1
1
1
1
1
1
1
1
1
1
1
1
1
1
1
1
1
1
1
1
1
1
1
1
1
1
1
1
1
1
1
1
1
1
1
1
1
1
1
1
1
1
1
1
1
1
1
1
1
1
1
1
1
1
1
1
1
1
1
1
1
1
1
1
1
1
1
1
1
1
1
1
1
1
1
1
1
1
1
1
1
1
1
1
1
1
1
1
1
1
1
1
1
1
1
1
1
1
1
1
1
1
1
1
1
1
1
1
1
1
1
1
1
1
1
1
1
1
1
1
1
1
1
1
1
1
1
1
1
1
1
1
1
1
1
1
1
1
1
1
1
1
1
1
1
1
1
1
1
1
1
1
1
1
1
1
1
1
1
1
1
1
1
1
1
1
1
1
1
1
1
1
1
1
1
1
1
1
1
1
1
1
1
1
1
1
1
1
1
1
1
1
1
1
1
1
1
1
1
1
1
1
1
1
1
1
1
1
1
1
1
1
1
1
1
1
1
1
1
1
1
1
1
1
1
1
1
1
1
1
1
1
1
1
1
1
1
1
1
1
1
1
1
1
1
1
1
1
1
1
1
1
1
1
1
1
1
1
1
1
1
1
1
1
1
1
1
1
1
1
1
1
1
1
1
1
1
1
1
1
1
1
1
1
1
1
1
1
1
1
1
1
1
1
1
1
1
1
1
1
1
1
1
1
1
1
1
1
1
1
1
1
1
1
1
1
1
1
1
1
1
1
1
1
1
1
1
1
1
1
1
1
1
1
1
1
1
1
1
1
1
1
1
1
1
1
1
1
1
1
1
1
1
1
1
1
1
1
1
1
1
1
1
1
1
1
1
1
1
1
1
1
1
1
1
1
1
1
1
1
1
1
1
1
1
1
1
1
1
1
1
1
1
1
1
1
1
1
1
1
1
1
1
1
1
1
1
1
1
1
1
1
1
1
1
1
1
1
1
1
1
1
1
1
1
1
1
1
1
1
1
1
1
1
1
1
1
1
1
1
1
1
1
1
1
1
1
1
1
1
1
1
1
1
1
1
1
1
1
1
1
1
1
1
1
1
1
1
1
1
1
1
1
1
1
1
1
1
1
1
1
1
1
1
1
1
1
1
1
1
1
1
1
1
1
1
1
1
1
1
1
1
1
1
1
1
1
1
1
1
1
1
1
1
1
1
1
1
1
1
1
1
1
1
1
1
1
1
1
1
1
1
1
1
1
1
1
1
1
1
1
1
1
1
1
1
1
1
1
1
1
1
1
1
1
1
1
1
1
1
1
1
1
1
1
1
1
1
1
1
1
1
1
1
1
1
1
1
1
1
1
1
1
1
1
1
1
1
1
1
1
1
1
1
1
1
1
1
1
1
1
1
1
1
1
1
1
1
1
1
1
1
1
1
1
1
1
1
1
1
1
1
1
1
1
1
1
1
1
1
1
1
1
1
1
1
1
1
1
1
1
1
1
1
1
1
1
1
1
1
1
1
1
1
1
1
1
1
1
1
1
1
1
1
1
1
1
1
1
1
1
1
1
1
1
1
1
1
1
1
1
1
1
1
1
1
1
1
1
1
1
1
1
1
1
1
1
1
1
1
1
1
1
1
1
1
1
1
1
1
1
1
1
1
1
1
1
1
1
1
1
1
1
1
1
1
1
1
1
1
1
1
1
1
1
1
1
1
1
1
1
1
1
1
1
1
1
1
1
1
1
1
1
1
1
1
1
1
1
1
1
1
1
1
1
1
1
1
1
1
1
1
1
1
1
1
1
1
1
1
1
1
1
1
1
1
1
1
1
1
1
1
1
1
1
1
1
1
1
1
1
1
1
1
1
1
1
1
1
1
1
1
1
1
1
1
1
1
1
1
1
1
1
1
1
1
1
1
1
1
1
1
1
1
1
1
1
1
1
1
1
1
1
1
1
1
1
1
1
1
1
1
1
1
1
1
1
1
1
1
1
1
1
1
1
1
1
1
1
1
1
1
1
1
1
1
1
1
1
1
1
1
1
1
1
1
1
1
1
1
1
1
1
1
1
1
1
1
1
1
1
VECTORS force double
9.05605 0 15.0949
-3.56985 0 -19.4234
-26.8724 0 -7.06697
-6.17766 0 -3.16734
-1.27298 0 -1.41368
22.5439 0 14.2978
-25.575 0 18.8178
11.1751 0 23.9003
-59.9114 0 -27.0916
13.686 0 -1.71786
29.3455 0 -12.7004
31.5757 0 -7.44515
1.68119 0 5.39167
-5.87778 0 21.0492
23.1663 0 8.91792
11.4528 0 -6.37442
-19.0807 0 -53.9116
-16.7464 0 -73.0085
5.14981 0 15.5616
30.0487 0 5.33164
1.32611 0 12.7273
-4.4724 0 -8.97723
6.92861 0 -2.3936
-32.4767 0 -12.6257
2.33457 0 15.3991
4.70516 0 -15.4929
-42.7509 0 10.5021
33.2067 0 -14.4571
9.9015 0 4.53706
3.00356 0 17.2607
-3.00356 0 17.2607
-9.9015 0 4.53706
-33.2067 0 -14.4571
42.7509 0 10.5021
-4.70516 0 -15.4929
-2.33457 0 15.3991
32.4767 0 -12.6257
-6.92861 0 -2.3936
4.4724 0 -8.97723
-1.32611 0 12.7273
-30.0487 0 5.33164
-5.14981 0 15.5616
16.7464 0 -73.0085
19.0807 0 -53.9116
-11.4528 0 -6.37442
-23.1663 0 8.91792
5.87778 0 21.0492
-1.68119 0 5.39167
-31.5757 0 -7.44515
-29.3455 0 -12.7004
-13.686 0 -1.71786
59.9114 0 -27.0916
-11.1751 0 23.9003
25.575 0 18.8178
-22.5439 0 14.2978
1.27298 0 -1.41368
6.17766 0 -3.16734
26.8724 0 -7.06697
3.56985 0 -19.4234
-9.05605 0 15.0949
0.37447 0 -16.1779
-18.457 0 28.7597
-40.0417 0 8.34107
60.6615 0 5.22902
-144.517 0 -37.2257
161.274 0 -8.58898
10.5292 0 -21.7465
-18.4476 0 -17.1857
-14.3685 0 40.5519
-11.7883 0 16.7426
22.2628 0 14.2195
22.4762 0 13.4231
-0.0380951 0 6.57405
-15.2923 0 4.86266
-53.5572 0 7.20308
43.2648 0 -2.18789
5.6039 0 61.1281
-23.7439 0 17.3991
-67.3773 0 -7.62942
-0.455927 0 9.50389
8.85039 0 -0.908723
9.82363 0 14.6354
-2.56534 0 7.94362
-0.515714 0 -4.3877
9.40609 0 4.87102
7.15145 0 12.8152
10.1911 0 -7.12119
10.7306 0 -1.96298
-1.59084 0 -0.0910362
-8.05923 0 -0.0486444
8.05923 0 -0.0486439
1.59084 0 -0.0910357
-10.7306 0 -1.96298
-10.1911 0 -7.12119
-7.15145 0 12.8152
-9.40609 0 4.87102
0.515714 0 -4.3877
2.56534 0 7.94362
-9.82363 0 14.6354
-8.85039 0 -0.908723
0.455923 0 9.50389
67.3773 0 -7.62943
23.7439 0 17.3991
-5.6039 0 61.1281
-43.2648 0 -2.18789
53.5572 0 7.20308
15.2923 0 4.86266
0.0380946 0 6.57405
-22.4762 0 13.4231
-22.2628 0 14.2195
11.7883 0 16.7426
14.3685 0 40.5519
18.4476 0 -17.1857
-10.5292 0 -21.7465
-161.274 0 -8.58898
144.517 0 -37.2257
-60.6615 0 5.22902
40.0417 0 8.34107
18.457 0 28.7597
-0.37447 0 -16.1779
-6.28822 0 -17.5801
-31.5524 0 -2.21198
44.3688 0 -3.84761
-17.9906 0 -5.65057
-3.15443 0 1.33681
-6.63306 0 49.6379
9.63078 0 -41.9933
-40.1081 0 -54.9661
33.3025 0 -36.1023
-36.8865 0 19.7794
46.4262 0 -34.3
2.43653 0 -9.07799
21.2975 0 -15.8174
-13.8719 0 2.84541
-48.2391 0 -4.49528
35.9228 0 12.3214
-2.14576 0 -28.0673
-51.9786 0 74.2516
88.3378 0 -38.1335
68.1849 0 15.5963
-189.281 0 -64.7037
-3.54769 0 -21.2254
3.39782 0 -13.1715
1.97189 0 -35.2153
-153.985 0 -61.2869
160.869 0 60.5581
-2.97356 0 3.46636
4.75327 0 15.2474
11.6288 0 -2.40285
10.0633 0 2.0337
-10.0633 0 2.03369
-11.6288 0 -2.40284
-4.75327 0 15.2474
2.97358 0 3.46637
-160.869 0 60.558
153.985 0 -61.2868
-1.97188 0 -35.2152
-3.39782 0 -13.1715
3.54768 0 -21.2254
189.281 0 -64.7037
-68.1849 0 15.5964
-88.3378 0 -38.1335
51.9786 0 74.2516
2.14576 0 -28.0673
-35.9228 0 12.3214
48.2391 0 -4.49528
13.872 0 2.84541
-21.2975 0 -15.8174
-2.43653 0 -9.07799
-46.4262 0 -34.3
36.8865 0 19.7794
-33.3025 0 -36.1023
40.1081 0 -54.9661
-9.63078 0 -41.9933
6.63306 0 49.6379
3.15443 0 1.33681
17.9906 0 -5.65056
-44.3688 0 -3.84761
31.5524 0 -2.21198
6.28822 0 -17.5801
-6.81045 0 13.2144
-22.7441 0 -4.91013
-5.32366 0 -34.6997
12.8384 0 18.4775
-8.13109 0 -23.9744
-31.9946 0 -13.6201
38.5374 0 -49.8588
16.5201 0 40.7779
-25.4719 0 -42.3706
82.5464 0 -52.0795
-59.6152 0 -39.836
29.1557 0 3.40587
69.3736 0 2.87421
-29.519 0 -30.1764
6.08075 0 3.41541
-87.9673 0 65.1601
76.3005 0 -92.8849
-66.2804 0 -45.6252
6.03525 0 26.5918
-51.5194 0 35.2575
69.2251 0 -51.2378
-84.2964 0 -48.481
195.533 0 48.6628
-11.6874 0 15.7879
-5.10496 0 53.0896
-80.0757 0 -6.91187
85.1424 0 36.1425
-0.55135 0 -92.8331
-48.3145 0 -14.2151
-54.1166 0 -9.27651
54.1166 0 -9.27652
48.3145 0 -14.2151
0.551347 0 -92.8332
-85.1424 0 36.1427
80.0758 0 -6.9119
5.10495 0 53.0895
11.6874 0 15.7879
-195.533 0 48.6628
84.2964 0 -48.481
-69.2251 0 -51.2378
51.5194 0 35.2575
-6.03525 0 26.5918
66.2804 0 -45.6252
-76.3005 0 -92.8849
87.9673 0 65.1601
-6.08074 0 3.41541
29.519 0 -30.1764
-69.3736 0 2.87421
-29.1557 0 3.40587
59.6152 0 -39.836
-82.5464 0 -52.0795
25.4719 0 -42.3706
-16.5201 0 40.7779
-38.5374 0 -49.8588
31.9946 0 -13.6201
8.13109 0 -23.9744
-12.8384 0 18.4775
5.32366 0 -34.6997
22.7441 0 -4.91013
6.81045 0 13.2144
-16.144 0 -14.2868
13.1233 0 -55.2576
45.4434 0 39.8176
-6.57909 0 -10.4228
5.03446 0 -20.5596
-30.1123 0 107.798
65.2431 0 -35.6272
-13.1317 0 19.3982
-62.3001 0 141.125
9.90626 0 -7.27482
-9.29444 0 -24.4349
-25.8874 0 -3.61787
-8.51671 0 5.28978
23.3888 0 23.5016
-9.02462 0 -138.761
2.14656 0 -1.39901
23.7985 0 42.914
-18.1578 0 -118.358
-6.42651 0 -17.5144
7.72977 0 31.7904
-1.27122 0 -15.4513
67.6151 0 105.536
6.68357 0 8.17086
13.6026 0 11.8416
-12.887 0 -0.927221
-1.16809 0 -0.494567
27.6782 0 -12.0183
-2.43375 0 98.7448
-58.6578 0 28.5428
94.0469 0 -10.3352
-94.047 0 -10.3353
58.6579 0 28.5428
2.43373 0 98.7448
-27.6781 0 -12.0182
1.16807 0 -0.494595
12.8871 0 -0.927209
-13.6026 0 11.8417
-6.68358 0 8.17085
-67.6151 0 105.536
1.27121 0 -15.4513
-7.72977 0 31.7904
6.42653 0 -17.5144
18.1579 0 -118.358
-23.7985 0 42.914
-2.14656 0 -1.399
9.02461 0 -138.761
-23.3888 0 23.5016
8.51672 0 5.28978
25.8874 0 -3.61787
9.29444 0 -24.4349
-9.90626 0 -7.27482
62.3001 0 141.125
13.1317 0 19.3982
-65.2431 0 -35.6272
30.1123 0 107.798
-5.03446 0 -20.5596
6.57909 0 -10.4228
-45.4434 0 39.8176
-13.1233 0 -55.2576
16.144 0 -14.2868
-39.1007 0 -29.0758
-10.93 0 31.3944
34.4603 0 39.7557
-41.1808 0 -50.0997
28.1386 0 5.72209
-3.23199 0 -25.9221
-26.365 0 83.986
9.18105 0 -55.6476
112.227 0 -114.136
-35.3523 0 -13.3722
-29.2935 0 -65.1597
-27.568 0 -3.37906
-23.4565 0 -93.6067
-48.4711 0 -81.3449
-89.3477 0 122.118
83.3603 0 -21.4276
-77.2961 0 45.0005
88.2107 0 -97.7877
64.1759 0 163.899
2.94553 0 31.2539
7.70861 0 -33.892
-60.671 0 -5.43578
21.5345 0 -15.5693
-31.5755 0 4.52211
50.7973 0 -25.8274
-7.8796 0 -3.67077
-4.09181 0 -1.99442
-37.3358 0 -9.88275
-24.9053 0 -37.0995
-15.9261 0 1.8102
15.9261 0 1.81028
24.9053 0 -37.0994
37.3358 0 -9.8827
4.09177 0 -1.99447
7.87952 0 -3.6708
-50.7976 0 -25.8275
31.5757 0 4.52218
-21.5345 0 -15.5693
60.671 0 -5.43576
-7.70858 0 -33.8919
-2.94553 0 31.2539
-64.1759 0 163.899
-88.2107 0 -97.7877
77.296 0 45.0005
-83.3603 0 -21.4277
89.3477 0 122.118
48.4711 0 -81.3449
23.4565 0 -93.6067
27.568 0 -3.37906
29.2935 0 -65.1597
35.3523 0 -13.3722
-112.227 0 -114.136
-9.18105 0 -55.6476
26.365 0 83.986
3.23199 0 -25.9221
-28.1386 0 5.72209
41.1808 0 -50.0997
-34.4603 0 39.7557
10.93 0 31.3944
39.1007 0 -29.0758
-75.1922 0 -10.2373
39.7702 0 -9.47727
18.451 0 -2.39181
-54.8816 0 -9.57853
28.5535 0 26.8774
-37.8286 0 12.5835
24.1949 0 -10.0898
-56.0294 0 94.8726
-19.8143 0 -1.79918
28.0936 0 -22.3376
0.0795771 0 50.9283
-3.0015 0 -31.6091
92.7781 0 146.756
12.3384 0 -33.3156
-36.4339 0 45.5514
-82.6891 0 -123.129
-16.001 0 19.4222
41.7687 0 -3.72684
17.8984 0 6.84937
-11.4842 0 22.6524
-91.3827 0 -110.751
19.3308 0 24.741
-17.9253 0 20.1518
7.51177 0 1.95878
-41.0012 0 1.67322
40.083 0 23.8629
-44.9782 0 -49.5886
29.3731 0 -7.9106
40.833 0 23.6231
-1.96588 0 48.428
1.96591 0 48.4279
-40.8343 0 23.6237
-29.373 0 -7.91076
44.9792 0 -49.589
-40.083 0 23.8629
41.0012 0 1.67326
-7.51175 0 1.9588
17.9252 0 20.1518
-19.3308 0 24.741
91.3829 0 -110.752
11.4842 0 22.6524
-17.8984 0 6.84934
-41.7687 0 -3.72685
16.001 0 19.4222
82.6892 0 -123.129
36.434 0 45.5514
-12.3384 0 -33.3156
-92.7781 0 146.756
3.0015 0 -31.6091
-0.0795731 0 50.9282
-28.0936 0 -22.3376
19.8143 0 -1.79918
56.0294 0 94.8726
-24.1949 0 -10.0898
37.8286 0 12.5835
-28.5535 0 26.8774
54.8816 0 -9.57853
-18.451 0 -2.39181
-39.7702 0 -9.47727
75.1922 0 -10.2373
-44.8878 0 -0.273153
-10.0351 0 68.8547
21.4638 0 -26.9631
15.1987 0 48.8913
76.1561 0 15.569
64.2221 0 -88.0705
12.5925 0 -21.4919
-21.7245 0 34.0554
-0.253931 0 -61.5497
-216.195 0 -9.43685
189.421 0 17.9415
50.6564 0 -2.00188
-39.7902 0 11.4564
-25.863 0 -65.0983
50.5403 0 -18.942
-5.52219 0 43.9747
131.331 0 86.5342
3.22416 0 -20.7208
-141.811 0 -43.137
-3.6566 0 -11.2953
2.4554 0 -41.4277
81.9008 0 51.5845
-16.6414 0 -2.48223
-15.629 0 -5.76707
20.6231 0 8.92
-56.874 0 -35.0081
80.9347 0 1.62892
21.4519 0 38.0034
-87.8879 0 64.2941
83.1013 0 -59.3358
-83.1006 0 -59.3355
87.8875 0 64.2934
-21.452 0 38.0036
-80.9348 0 1.62881
56.8741 0 -35.0081
-20.6232 0 8.91998
15.629 0 -5.76708
16.6414 0 -2.48224
-81.9009 0 51.5846
-2.4554 0 -41.4277
3.65659 0 -11.2953
141.811 0 -43.1369
-3.22416 0 -20.7208
-131.331 0 86.5342
5.52219 0 43.9747
-50.5403 0 -18.9419
25.863 0 -65.0983
39.7902 0 11.4564
-50.6565 0 -2.00188
-189.421 0 17.9415
216.195 0 -9.43685
0.253941 0 -61.5497
21.7245 0 34.0554
-12.5925 0 -21.4919
-64.2221 0 -88.0705
-76.1561 0 15.569
-15.1987 0 48.8913
-21.4638 0 -26.9631
10.0351 0 68.8547
44.8878 0 -0.273153
-20.6002 0 -30.8069
4.15109 0 17.2691
11.5675 0 -34.1804
0.781013 0 52.31
-65.8797 0 30.9619
-56.4675 0 65.3087
134.942 0 -35.1828
-48.7336 0 -25.2381
-9.28831 0 -34.1755
14.8438 0 32.1149
-86.8537 0 33.4111
45.9736 0 -29.8556
-55.1711 0 35.7999
26.3704 0 -20.6334
31.0224 0 24.8396
41.6026 0 -12.0284
36.3561 0 -93.4147
5.17511 0 -8.34564
-129.93 0 -137.605
102.323 0 32.9818
34.1375 0 -35.3586
-39.7415 0 26.8728
44.0064 0 -9.51932
-33.0713 0 -54.39
-14.1033 0 -15.2888
-12.0408 0 38.0973
-93.89 0 -0.173678
81.0698 0 -60.8353
-9.37908 0 -13.313
6.74593 0 -4.50204
-6.7459 0 -4.50178
9.37875 0 -13.3116
-81.0695 0 -60.835
93.8897 0 -0.173115
12.0415 0 38.0974
14.1032 0 -15.2887
33.0712 0 -54.3899
-44.006 0 -9.51964
39.7412 0 26.8731
-34.1375 0 -35.3585
-102.323 0 32.9818
129.93 0 -137.605
-5.17511 0 -8.34564
-36.3561 0 -93.4146
-41.6026 0 -12.0284
-31.0224 0 24.8396
-26.3704 0 -20.6334
55.1711 0 35.7999
-45.9736 0 -29.8556
86.8538 0 33.4111
-14.8438 0 32.1149
9.2883 0 -34.1755
48.7337 0 -25.2381
-134.942 0 -35.1828
56.4675 0 65.3087
65.8797 0 30.9619
-0.781013 0 52.31
-11.5675 0 -34.1804
-4.15109 0 17.2691
20.6002 0 -30.8069
15.9036 0 6.98692
-4.64624 0 24.9773
-6.9143 0 -20.0053
-66.2928 0 21.1092
-99.4293 0 -21.6574
79.1895 0 46.2481
7.23115 0 2.08929
7.34608 0 32.0274
-15.9624 0 54.0952
43.5485 0 82.3384
-4.46704 0 -27.5143
-44.6311 0 36.1914
35.3014 0 1.6743
-35.9642 0 52.8139
32.9084 0 14.5284
-109.527 0 36.9032
-11.1983 0 13.384
12.6336 0 12.6697
-11.0128 0 15.8275
39.5884 0 -36.1447
13.2096 0 -7.69397
-3.53684 0 14.368
-6.40559 0 -3.67971
-74.6408 0 38.1623
105.708 0 25.7673
-29.6058 0 -56.7061
110.9 0 -269.363
-88.2583 0 -52.2338
57.5161 0 7.61912
11.464 0 18.5607
-11.4636 0 18.5603
-57.5186 0 7.61743
88.2592 0 -52.235
-110.902 0 -269.36
29.6064 0 -56.7074
-105.708 0 25.7669
74.6406 0 38.1625
6.40563 0 -3.6797
3.53679 0 14.3681
-13.2096 0 -7.694
-39.5884 0 -36.1447
11.0128 0 15.8275
-12.6336 0 12.6697
11.1983 0 13.3841
109.527 0 36.9032
-32.9084 0 14.5284
35.9642 0 52.8139
-35.3014 0 1.6743
44.6311 0 36.1914
4.46704 0 -27.5143
-43.5485 0 82.3383
15.9624 0 54.0952
-7.34608 0 32.0274
-7.23115 0 2.08929
-79.1895 0 46.2481
99.4293 0 -21.6574
66.2928 0 21.1092
6.9143 0 -20.0053
4.64624 0 24.9773
-15.9036 0 6.98692
7.93364 0 8.98486
-4.7974 0 -16.6334
5.38369 0 22.5181
10.1591 0 27.1961
1.62508 0 -1.87334
47.3759 0 -70.7833
-29.2055 0 -173.51
-16.2033 0 1.70406
-13.4101 0 -40.0424
-2.79822 0 6.20301
-5.84642 0 -36.8602
-60.714 0 -44.6693
-44.3318 0 -104.442
-28.0794 0 -97.9678
-53.6106 0 19.9856
17.1001 0 -5.57183
-36.1729 0 69.6245
122.152 0 -27.7459
-79.1738 0 -62.1811
-28.6332 0 17.423
70.6888 0 162.549
54.0324 0 49.1189
-35.5194 0 34.0435
51.8924 0 -59.1238
-90.7541 0 1.18016
94.122 0 2.65554
-166.221 0 268.755
71.2645 0 98.2913
20.9348 0 7.17971
36.7165 0 34.9246
-36.7159 0 34.9238
-20.9323 0 7.18452
-71.2628 0 98.2887
166.221 0 268.755
-94.1223 0 2.65558
90.7543 0 1.18015
-51.8922 0 -59.1237
35.5192 0 34.0432
-54.0324 0 49.1189
-70.6888 0 162.549
28.6332 0 17.423
79.1739 0 -62.1812
-122.152 0 -27.7459
36.1729 0 69.6245
-17.1001 0 -5.57185
53.6106 0 19.9856
28.0794 0 -97.9678
44.3318 0 -104.442
60.714 0 -44.6693
5.84642 0 -36.8602
2.79822 0 6.20301
13.4101 0 -40.0424
16.2033 0 1.70406
29.2055 0 -173.51
-47.3759 0 -70.7833
-1.62508 0 -1.87334
-10.1591 0 27.1961
-5.38369 0 22.5181
4.7974 0 -16.6334
-7.93364 0 8.98486
-21.4106 0 -5.49949
40.8928 0 -0.849374
-0.680573 0 -61.897
-17.6707 0 6.05116
-4.60157 0 12.2364
-83.5959 0 128.23
12.2883 0 5.54327
-12.9759 0 101.187
91.1459 0 22.7579
-49.8538 0 12.6349
-54.7349 0 22.5021
133.673 0 26.9826
39.8589 0 12.3837
-10.0693 0 56.1927
44.1607 0 0.0738521
-21.9305 0 50.1434
124.303 0 12.3719
-146.648 0 -56.813
-16.8364 0 55.5498
-8.32573 0 -34.2244
6.13709 0 18.1699
-138.707 0 4.73938
106.849 0 8.61231
12.8974 0 -50.638
17.878 0 4.02503
-0.42103 0 5.4782
-7.36856 0 -21.564
3.07036 0 -11.8316
-49.7287 0 16.1413
-16.9629 0 -271.24
16.9623 0 -271.232
49.7266 0 16.1385
-3.07004 0 -11.8319
7.36824 0 -21.5639
0.421086 0 5.47823
-17.8779 0 4.02497
-12.8974 0 -50.6381
-106.849 0 8.61241
138.707 0 4.73937
-6.13707 0 18.1699
8.32568 0 -34.2244
16.8365 0 55.5498
146.648 0 -56.8131
-124.303 0 12.3719
21.9305 0 50.1434
-44.1607 0 0.0738488
10.0693 0 56.1927
-39.8589 0 12.3837
-133.673 0 26.9826
54.7349 0 22.5021
49.8538 0 12.6349
-91.1459 0 22.7579
12.9759 0 101.187
-12.2883 0 5.54327
83.5958 0 128.23
4.60157 0 12.2364
17.6707 0 6.05116
0.680577 0 -61.897
-40.8928 0 -0.849373
21.4106 0 -5.49949
-9.92256 0 -2.88004
4.6041 0 -41.2819
-8.92723 0 57.2938
2.79053 0 3.99514
-22.0561 0 10.9216
10.4032 0 -6.53324
-30.3009 0 -2.3792
-51.9992 0 -97.6213
16.3972 0 33.6191
-3.25999 0 -0.384565
-2.00793 0 -76.2164
32.0883 0 -66.6232
-48.8718 0 -17.4271
-36.49 0 19.9693
58.994 0 85.9089
52.2585 0 -38.6834
5.61616 0 -56.5237
-21.0837 0 -18.6453
138.034 0 -1.48788
-30.5739 0 16.7629
-33.4452 0 -17.4885
103.05 0 -30.8128
-5.05381 0 42.4429
-54.3139 0 49.1939
3.37711 0 14.3666
-22.7865 0 -55.6196
-37.724 0 -122.318
3.15811 0 -0.397036
16.5845 0 -20.5559
9.51941 0 273.445
-9.51889 0 273.437
-16.5841 0 -20.5555
-3.16068 0 -0.39603
37.7235 0 -122.317
22.7865 0 -55.6196
-3.37713 0 14.3668
54.3138 0 49.194
5.0538 0 42.4429
-103.05 0 -30.8128
33.4452 0 -17.4883
30.5739 0 16.7629
-138.034 0 -1.48777
21.0836 0 -18.6453
-5.6161 0 -56.5237
-52.2585 0 -38.6834
-58.994 0 85.9089
36.49 0 19.9693
48.8718 0 -17.4271
-32.0883 0 -66.6232
2.00793 0 -76.2164
3.25999 0 -0.384565
-16.3972 0 33.6191
51.9992 0 -97.6213
30.3009 0 -2.3792
-10.4032 0 -6.53324
22.0561 0 10.9216
-2.79054 0 3.99514
8.92723 0 57.2938
-4.6041 0 -41.2819
9.92256 0 -2.88004
19.7289 0 -18.151
12.4782 0 61.3973
5.56297 0 -14.7011
53.7439 0 -119.225
-48.0431 0 -2.20024
20.4059 0 -15.6182
18.3332 0 -25.6637
50.7704 0 120.01
22.628 0 -24.1698
-34.1388 0 42.0449
20.1535 0 104.282
9.99973 0 -7.2596
-17.6997 0 44.1162
-3.59346 0 7.41318
50.6651 0 94.8901
-33.2345 0 13.1906
-26.7703 0 28.1587
-16.1786 0 19.8997
66.7429 0 47.3911
-9.04612 0 -186.214
22.8349 0 4.15364
19.9516 0 23.2455
-88.6373 0 11.2675
-40.2034 0 -60.5452
56.6519 0 -183.051
98.6252 0 -44.898
-2.01971 0 64.391
26.735 0 118.686
14.3595 0 -30.0383
-33.2059 0 7.84788
33.2061 0 7.84733
-14.3573 0 -30.0377
-26.7346 0 118.684
2.02012 0 64.3913
-98.625 0 -44.8984
-56.6516 0 -183.051
40.2025 0 -60.5451
88.6381 0 11.2675
-19.9515 0 23.2454
-22.835 0 4.15362
9.04609 0 -186.214
-66.7428 0 47.391
16.1785 0 19.8996
26.7703 0 28.1588
33.2345 0 13.1907
-50.6651 0 94.8902
3.59345 0 7.41318
17.6997 0 44.1162
-9.99973 0 -7.25961
-20.1535 0 104.282
34.1388 0 42.0449
-22.628 0 -24.1698
-50.7704 0 120.01
-18.3332 0 -25.6637
-20.4059 0 -15.6182
48.0431 0 -2.20024
-53.7439 0 -119.225
-5.56297 0 -14.7011
-12.4782 0 61.3973
-19.7289 0 -18.151
-0.613609 0 30.4584
-1.54454 0 18.9192
-47.9109 0 -117.146
-144.399 0 113.272
104.981 0 17.6704
-9.18209 0 -15.7892
-19.9553 0 -3.15436
18.7848 0 11.5985
6.84388 0 -8.41854
2.30793 0 -3.85852
-5.04573 0 -88.3805
10.2185 0 -27.9528
1.36492 0 -21.6866
-49.4375 0 -20.7502
33.5908 0 27.1081
-40.5986 0 -38.7157
42.0037 0 18.3092
-17.1236 0 50.5675
-122.882 0 -5.64057
-6.30521 0 95.4241
-38.8689 0 -28.8591
40.3287 0 3.29262
-177.892 0 17.6032
-177.025 0 122.509
99.5832 0 79.2272
49.4338 0 53.3482
-37.4358 0 -14.7659
74.3698 0 -144.987
13.6816 0 43.0683
-14.8503 0 -126.854
14.8517 0 -126.857
-13.6812 0 43.0673
-74.3703 0 -144.987
37.4356 0 -14.7655
-49.4345 0 53.3482
-99.5817 0 79.2271
177.024 0 122.509
177.893 0 17.6033
-40.3288 0 3.2925
38.8689 0 -28.8591
6.30519 0 95.4241
122.882 0 -5.64057
17.1236 0 50.5675
-42.0037 0 18.3092
40.5987 0 -38.7157
-33.5908 0 27.108