# vtk DataFile Version 3.0
SiWiRVisFile
ASCII
DATASET UNSTRUCTURED_GRID
POINTS 1600 DOUBLE
77.367 100 72.8957
75.2446 100 72.8163
76.348 100 73.4024
78.3359 100 73.2298
79.2755 100 73.6406
80.3709 100 74.204
81.5234 100 73.721
82.6829 100 74.1751
83.8355 100 74.2001
83.6125 100 73.1739
92.5967 100 67.5785
91.3995 100 67.3992
91.9339 100 68.4053
90.0506 100 67.4436
84.5618 100 67.0768
90.0664 100 58.6482
91.4305 100 58.506
91.3746 100 56.7789
87.5269 100 50.5694
93.5227 100 55.3704
106.734 100 34.2192
107.17 100 32.568
106.263 100 32.0322
107.287 100 31.529
105.139 100 32.1926
112.042 100 33.7261
110.945 100 25.3608
112.224 100 24.2216
110.558 100 27.1978
111.77 100 26.7901
112.821 100 26.6337
113.783 100 27.2655
112.294 100 25.6415
113.788 100 25.8617
114.456 100 31.5443
118.761 100 32.2685
116.975 100 31.2318
117.637 100 32.0761
116.905 100 32.9792
117.174 100 34.0743
131.22 100 55.8573
136.965 100 50.5694
131.511 100 56.8999
133.175 100 58.3832
135.229 100 57.8221
135.427 100 69.1107
134.55 100 66.8972
134.289 100 69.0729
133.352 100 67.117
133.511 100 68.1816
140.758 100 73.2598
140.312 100 74.257
141.649 100 73.9943
142.657 100 73.5232
144.434 100 73.8264
145.42 100 73.5253
146.703 100 72.9736
148.407 100 73.6414
148.995 100 72.7487
147.922 100 72.6915
74.3956 100 73.4648
75.4158 100 73.9975
77.3713 100 73.9028
78.3867 100 74.286
79.3614 100 74.7708
81.2545 100 74.9032
82.3391 100 75.1327
83.4255 100 75.2832
84.4746 100 75.1419
85.8297 100 75.4395
87.0203 100 75.3759
92.2054 100 66.572
90.6468 100 68.3679
91.1649 100 64.4842
90.9892 100 59.5255
90.7486 100 66.4679
92.3072 100 57.5241
92.4296 100 56.3784
93.6262 100 56.5278
96.7348 100 54.2137
106.107 100 33.1299
96.5171 100 40.2658
106.604 100 43.5467
109.538 100 30.2788
108.376 100 31.0435
111.873 100 32.5576
110.609 100 32.0708
109.484 100 31.4804
106.845 100 22.6567
111.506 100 28.0285
112.533 100 27.834
117.97 100 22.7199
113.297 100 29.7321
115.563 100 31.1893
115.014 100 32.6935
116.229 100 32.1152
114.499 100 29.4428
118.675 100 43.353
127.975 100 40.2658
117.911 100 33.1646
127.247 100 55.4352
128.989 100 56.081
131.928 100 54.8319
133.95 100 57.5988
133.332 100 65.9464
133.215 100 59.5638
131.804 100 63.1263
134.645 100 68.0171
132.138 100 65.9845
138.215 100 75.7141
139.217 100 75.222
140.318 100 75.4044
141.307 100 75.0569
142.379 100 74.7819
143.455 100 74.4301
145.31 100 74.5739
146.347 100 74.2957
147.367 100 73.856
149.274 100 74.3535
149.939 100 73.3332
74.3731 100 74.5939
75.4142 100 75.0982
76.4071 100 74.4878
77.4434 100 74.9992
78.4046 100 75.5538
80.3656 100 75.461
81.3172 100 75.9086
82.5266 100 76.1836
83.8481 100 76.4258
84.9434 100 76.125
86.4772 100 76.302
86.4612 100 77.5172
88.6088 100 77.2407
91.8725 100 65.5133
90.2659 100 62.7671
93.1108 100 61.7161
92.5308 100 58.5947
93.3081 100 57.7574
94.4513 100 57.4537
95.7138 100 54.6873
97.7909 100 53.857
104.602 100 44.7311
105.535 100 44.2797
106.498 100 44.8274
98.9357 100 41.5848
107.732 100 44.1231
107.507 100 42.9177
105.568 100 43.1885
111.403 100 29.1666
112.229 100 30.2131
112.425 100 28.9466
113.494 100 28.6313
121.883 100 43.1471
118.342 100 42.2921
117.642 100 43.9847
120.808 100 44.0189
118.4 100 45.1346
119.221 100 44.3522
120.845 100 45.1449
126.293 100 54.3528
129.919 100 55.4242
129.97 100 56.9928
132.935 100 57.2112
132.018 100 57.9501
132.788 100 60.9618
132.127 100 62.0976
132.405 100 65.028
136.399 100 76.2794
137.706 100 76.6988
138.797 100 76.6012
139.842 100 76.4741
141.08 100 76.1793
142.084 100 75.8996
143.229 100 75.4938
144.338 100 75.0956
146.075 100 75.4589
147.043 100 75.0617
148.099 100 74.7187
149.036 100 75.3704
150.226 100 74.7971
74.5277 100 75.6709
75.4077 100 76.3034
76.413 100 75.5713
77.3814 100 76.1154
79.3078 100 76.0335
80.4341 100 76.5247
81.3431 100 76.9902
82.4145 100 77.272
84.4961 100 77.3801
85.6051 100 76.9254
85.7056 100 79.0884
87.4907 100 77.6434
87.5802 100 76.5386
92.2888 100 64.1778
91.332 100 63.3525
91.385 100 62.2709
93.0722 100 59.5717
92.0216 100 60.1604
93.8522 100 58.7009
95.2361 100 58.648
95.3042 100 56.5872
97.9818 100 55.2041
104.49 100 43.6491
105.318 100 48.9598
105.447 100 45.317
105.875 100 46.3206
108.037 100 46.3923
110.862 100 46.5615
108.659 100 42.9368
111.837 100 31.4585
113.623 100 30.8745
115.493 100 42.1426
115.325 100 44.5722
116.265 100 45.5425
117.643 100 46.2331
119.491 100 45.3916
118.71 100 46.2982
120.072 100 42.8695
126.118 100 55.4851
128.659 100 57.1284
129.75 100 58.0701
131.438 100 58.851
132.222 100 59.9783
131.601 100 60.875
130.829 100 61.9754
131.617 100 64.1311
131.251 100 65.1849
137.301 100 75.2352
137.431 100 78.309
138.433 100 78.0557
139.609 100 77.5021
140.78 100 77.2932
141.864 100 77.007
142.929 100 76.7241
143.985 100 76.3054
145.088 100 75.8833
146.981 100 76.1369
148.012 100 75.8173
148.97 100 76.4381
149.972 100 75.9388
74.4608 100 76.8112
75.6246 100 77.4857
76.4518 100 76.8499
78.3023 100 76.6734
79.3037 100 77.1009
80.465 100 77.6417
81.4738 100 78.0458
82.523 100 78.3696
83.4592 100 77.7385
84.7714 100 78.4572
85.6123 100 80.235
89.0923 100 78.2516
89.1383 100 76.2379
95.2616 100 62.4201
92.4106 100 63.0237
93.8538 100 60.7287
96.3472 100 60.7597
95.9165 100 59.5613
95.6906 100 57.6069
96.6133 100 56.4189
96.9696 100 55.2742
102.788 100 53.0397
105 100 47.9494
106.883 100 47.0937
106.849 100 45.7601
108.103 100 47.7532
109.141 100 47.1856
110.206 100 47.6669
107.86 100 45.1905
110.935 100 33.5821
110.807 100 34.8047
116.476 100 44.3177
113.514 100 47.2697
114.599 100 46.9484
116.007 100 46.6826
117.217 100 45.0862
117.443 100 47.341
117.941 100 48.3052
122.071 100 52.3889
128.386 100 55.1248
127.954 100 56.2696
128.526 100 58.2223
130.09 100 59.0123
130.94 100 59.8918
129.897 100 60.1247
130.567 100 64.2409
130.641 100 63.0459
136.683 100 77.4464
136.033 100 78.3899
139.164 100 80.146
139.194 100 78.9654
140.529 100 78.3531
141.548 100 78.2077
142.672 100 78.0047
143.841 100 77.4595
144.951 100 77.1162
145.941 100 76.6071
147.707 100 76.8897
148.732 100 77.4872
149.896 100 77.0382
74.5982 100 77.9833
75.6257 100 78.6053
76.5903 100 78.0284
77.4474 100 77.3991
78.4595 100 77.9054
79.6096 100 78.2354
80.5688 100 78.6996
81.5988 100 79.141
82.7206 100 79.5073
83.614 100 78.8953
84.666 100 79.5943
86.7728 100 78.5839
89.3764 100 79.7372
88.1883 100 75.4778
90.2079 100 76.4491
94.2612 100 61.901
96.4038 100 62.0853
97.623 100 60.8953
97.1267 100 59.9466
96.7767 100 57.7421
97.8466 100 56.4908
99.9533 100 55.6889
104.37 100 51.6846
104.687 100 50.6683
106.109 100 48.088
107.15 100 48.209
108.695 100 50.3084
109.093 100 48.4277
111.913 100 46.5179
110.977 100 45.4139
114.47 100 45.2037
113.916 100 48.3512
115.206 100 47.7705
115.84 100 48.8291
116.567 100 48.032
118.552 100 47.3674
119.006 100 48.8666
121.857 100 51.2538
124.39 100 56.3554
126.745 100 56.6584
127.577 100 57.4325
128.902 100 59.3098
128.259 100 60.821
129.03 100 61.5131
130.017 100 61.1895
135.386 100 75.9203
137.279 100 72.8907
135.584 100 79.345
138.145 100 79.1632
140.309 100 79.5079
141.436 100 79.4076
142.34 100 80.3964
142.575 100 79.3468
143.64 100 78.7309
144.649 100 78.4497
145.684 100 77.8857
146.747 100 77.4889
147.691 100 78.0518
148.511 100 78.7698
149.673 100 78.0947
73.4727 100 78.3716
74.6036 100 79.0221
76.6088 100 79.1462
77.5827 100 78.4693
78.6517 100 79.0026
78.7396 100 81.4929
80.5287 100 79.8736
81.7232 100 80.2897
82.7004 100 80.5867
83.6754 100 80.0656
85.5932 100 81.3949
87.9661 100 78.6801
89.975 100 80.7205
89.2204 100 75.2135
95.2211 100 63.5451
95.1343 100 61.0201
96.2159 100 63.1474
98.3404 100 61.727
97.2645 100 58.8255
97.9343 100 57.5695
98.9509 100 56.0855
100.972 100 55.4658
103.976 100 52.6682
106.524 100 49.0618
109.259 100 51.2642
109.522 100 49.5373
107 100 52.5307
110.381 100 48.8693
106.076 100 53.307
108.033 100 53.0876
117.853 100 53.9272
117.067 100 53.1371
115.158 100 49.7652
115.585 100 53.8207
115.27 100 50.9177
116.267 100 49.8633
117.049 100 49.0692
120.85 100 52.2025
122.064 100 54.4344
125.507 100 56.7938
126.243 100 57.6731
127.822 100 59.2223
126.839 100 60.1976
127.924 100 61.7944
129.797 100 62.3967
129.444 100 63.4828
136.24 100 75.1518
130.466 100 80.2127
136.834 100 79.3293
140.132 100 80.6362
141.233 100 80.6671
142.012 100 81.5416
143.516 100 80.1302
144.499 100 79.5121
145.619 100 80.2225
145.539 100 79.0867
146.53 100 78.5351
147.522 100 79.1396
149.72 100 79.1551
150.667 100 78.4328
73.6131 100 79.701
74.64 100 80.1864
75.6657 100 79.7684
76.8456 100 80.283
77.7758 100 79.6723
77.8216 100 80.7583
78.8199 100 80.2543
81.0161 100 81.1228
82.0506 100 81.4625
83.1149 100 81.5626
84.3265 100 82.1739
85.4603 100 82.4836
86.521 100 79.7669
86.5151 100 81.9828
86.4376 100 83.1843
90.5431 100 79.8383
95.8286 100 64.3464
97.5081 100 62.4354
99.1634 100 59.3376
98.1447 100 59.7291
98.312 100 58.7399
98.8867 100 57.2222
104.6 100 53.6476
105.58 100 50.0216
107.529 100 49.6795
108.339 100 51.8995
107.689 100 50.9841
105.422 100 54.4688
106.471 100 54.2929
108.481 100 55.892
116.634 100 54.1728
119.725 100 54.3524
120.397 100 55.6829
117.188 100 51.3628
116.012 100 52.164
117.295 100 50.266
118.032 100 49.4729
121.694 100 53.37
124.491 100 57.5188
126.967 100 58.5876
125.836 100 59.5279
125.945 100 60.7107
126.667 100 61.4207
128.721 100 62.5878
131.312 100 79.5378
138.368 100 82.1299
138.873 100 81.2103
138.173 100 80.3039
139.404 100 82.1029
140.164 100 83.0086
140.582 100 81.7007
143.156 100 81.425
144.285 100 81.8133
144.562 100 80.7481
146.799 100 81.1008
146.575 100 79.6155
147.511 100 80.3221
148.643 100 79.802
149.674 100 80.2363
150.953 100 79.4879
73.5102 100 80.824
74.5754 100 81.2208
75.5691 100 80.9749
76.6262 100 81.3806
77.1766 100 83.2046
75.6205 100 84.4957
77.659 100 81.9067
79.9238 100 81.3368
80.7149 100 82.1987
79.6056 100 82.5153
81.992 100 82.587
83.385 100 84.0656
84.0825 100 83.2039
85.4046 100 83.6003
87.4836 100 83.2772
90.3746 100 78.3355
97.1772 100 64.5068
97.4199 100 63.4301
98.7371 100 60.6006
101.622 100 60.6716
100.061 100 56.7872
[...]
POINT_DATA 1600
SCALARS mass double
LOOKUP_TABLE default
1
1
1
1
1
1
1
1
1
1
1
1
1
1
1
1
1
1
1
1
1
1
1
1
1
1
1
1
1
1
1
1
1
1
1
1
1
1
1
1
1
1
1
1
1
1
1
1
1
1
1
1
1
1
1
1
1
1
1
1
1
1
1
1
1
1
1
1
1
1
1
1
1
1
1
1
1
1
1
1
1
1
1
1
1
1
1
1
1
1
1
1
1
1
1
1
1
1
1
1
1
1
1
1
1
1
1
1
1
1
1
1
1
1
1
1
1
1
1
1
1
1
1
1
1
1
1
1
1
1
1
1
1
1
1
1
1
1
1
1
1
1
1
1
1
1
1
1
1
1
1
1
1
1
1
1
1
1
1
1
1
1
1
1
1
1
1
1
1
1
1
1
1
1
1
1
1
1
1
1
1
1
1
1
1
1
1
1
1
1
1
1
1
1
1
1
1
1
1
1
1
1
1
1
1
1
1
1
1
1
1
1
1
1
1
1
1
1
1
1
1
1
1
1
1
1
1
1
1
1
1
1
1
1
1
1
1
1
1
1
1
1
1
1
1
1
1
1
1
1
1
1
1
1
1
1
1
1
1
1
1
1
1
1
1
1
1
1
1
1
1
1
1
1
1
1
1
1
1
1
1
1
1
1
1
1
1
1
1
1
1
1
1
1
1
1
1
1
1
1
1
1
1
1
1
1
1
1
1
1
1
1
1
1
1
1
1
1
1
1
1
1
1
1
1
1
1
1
1
1
1
1
1
1
1
1
1
1
1
1
1
1
1
1
1
1
1
1
1
1
1
1
1
1
1
1
1
1
1
1
1
1
1
1
1
1
1
1
1
1
1
1
1
1
1
1
1
1
1
1
1
1
1
1
1
1
1
1
1
1
1
1
1
1
1
1
1
1
1
1
1
1
1
1
1
1
1
1
1
1
1
1
1
1
1
1
1
1
1
1
1
1
1
1
1
1
1
1
1
1
1
1
1
1
1
1
1
1
1
1
1
1
1
1
1
1
1
1
1
1
1
1
1
1
1
1
1
1
1
1
1
1
1
1
1
1
1
1
1
1
1
1
1
1
1
1
1
1
1
1
1
1
1
1
1
1
1
1
1
1
1
1
1
1
1
1
1
1
1
1
1
1
1
1
1
1
1
1
1
1
1
1
1
1
1
1
1
1
1
1
1
1
1
1
1
1
1
1
1
1
1
1
1
1
1
1
1
1
1
1
1
1
1
1
1
1
1
1
1
1
1
1
1
1
1
1
1
1
1
1
1
1
1
1
1
1
1
1
1
1
1
1
1
1
1
1
1
1
1
1
1
1
1
1
1
1
1
1
1
1
1
1
1
1
1
1
1
1
1
1
1
1
1
1
1
1
1
1
1
1
1
1
1
1
1
1
1
1
1
1
1
1
1
1
1
1
1
1
1
1
1
1
1
1
1
1
1
1
1
1
1
1
1
1
1
1
1
1
1
1
1
1
1
1
1
1
1
1
1
1
1
1
1
1
1
1
1
1
1
1
1
1
1
1
1
1
1
1
1
1
1
1
1
1
1
1
1
1
1
1
1
1
1
1
1
1
1
1
1
1
1
1
1
1
1
1
1
1
1
1
1
1
1
1
1
1
1
1
1
1
1
1
1
1
1
1
1
1
1
1
1
1
1
1
1
1
1
1
1
1
1
1
1
1
1
1
1
1
1
1
1
1
1
1
1
1
1
1
1
1
1
1
1
1
1
1
1
1
1
1
1
1
1
1
1
1
1
1
1
1
1
1
1
1
1
1
1
1
1
1
1
1
1
1
1
1
1
1
1
1
1
1
1
1
1
1
1
1
1
1
1
1
1
1
1
1
1
1
1
1
1
1
1
1
1
1
1
1
1
1
1
1
1
1
1
1
1
1
1
1
1
1
1
1
1
1
1
1
1
1
1
1
1
1
1
1
1
1
1
1
1
1
1
1
1
1
1
1
1
1
1
1
1
1
1
1
1
1
1
1
1
1
1
1
1
1
1
1
1
1
1
1
1
1
1
1
1
1
1
1
1
1
1
1
1
1
1
1
1
1
1
1
1
1
1
1
1
1
1
1
1
1
1
1
1
1
1
1
1
1
1
1
1
1
1
1
1
1
1
1
1
1
1
1
1
1
1
1
1
1
1
1
1
1
1
1
1
1
1
1
1
1
1
1
1
1
1
1
1
1
1
1
1
1
1
1
1
1
1
1
1
1
1
1
1
1
1
1
1
1
1
1
1
1
1
1
1
1
1
1
1
1
1
1
1
1
1
1
1
1
1
1
1
1
1
1
1
1
1
1
1
1
1
1
1
1
1
1
1
1
1
1
1
1
1
1
1
1
1
1
1
1
1
1
1
1
1
1
1
1
1
1
1
1
1
1
1
1
1
1
1
1
1
1
1
1
1
1
1
1
1
1
1
1
1
1
1
1
1
1
1
1
1
1
1
1
1
1
1
1
1
1
1
1
1
1
1
1
1
1
1
1
1
1
1
1
1
1
1
1
1
1
1
1
1
1
1
1
1
1
1
1
1
1
1
1
1
1
1
1
1
1
1
1
1
1
1
1
1
1
1
1
1
1
1
1
1
1
1
1
1
1
1
1
1
1
1
1
1
1
1
1
1
1
1
1
1
1
1
1
1
1
1
1
1
1
1
1
1
1
1
1
1
1
1
1
1
1
1
1
1
1
1
1
1
1
1
1
1
1
1
1
1
1
1
1
1
1
1
1
1
1
1
1
1
1
1
1
1
1
1
1
1
1
1
1
1
1
1
1
1
1
1
1
1
1
1
1
1
1
1
1
1
1
1
1
1
1
1
1
1
1
1
1
1
1
1
1
1
1
1
1
1
1
1
1
1
1
1
1
1
1
1
1
1
1
1
1
1
1
1
1
1
1
1
1
1
1
1
1
1
1
1
1
1
1
1
1
1
1
1
1
1
1
1
1
1
1
1
1
1
1
1
1
1
1
1
1
1
1
1
1
1
1
1
1
1
1
1
1
1
1
1
1
1
1
1
1
1
1
1
1
1
1
1
1
1
1
1
1
1
1
1
1
1
1
1
1
1
1
1
1
1
1
1
1
1
1
1
1
1
1
1
1
1
1
1
1
1
1
1
1
1
1
1
1
1
1
1
1
1
1
1
1
1
1
1
1
1
1
1
1
1
1
1
1
1
1
1
1
1
1
1
1
1
1
1
1
1
1
1
1
1
1
1
1
1
1
1
1
1
1
1
1
1
1
1
1
1
1
1
1
1
1
1
1
1
1
1
1
1
1
1
1
1
1
1
1
1
1
1
1
1
1
1
1
1
1
1
1
1
1
1
1
1
1
1
1
1
1
1
1
1
1
1
1
1
1
1
1
1
1
1
1
1
1
1
1
1
1
1
1
1
1
1
1
1
1
1
1
1
1
1
1
1
1
1
1
1
1
1
1
1
1
1
1
1
1
1
1
1
1
1
1
1
1
1
1
1
1
1
1
1
1
1
1
1
1
1
1
1
1
1
1
1
1
1
1
1
1
1
1
1
1
1
1
1
1
1
1
1
1
1
1
1
1
1
1
1
1
1
1
1
1
1
1
1
1
1
1
1
1
1
1
1
1
1
1
1
1
VECTORS force double
-72.7188 0 -122.636
33.6927 0 2.46254
0.441333 0 -19.9634
-6.90344 0 -31.7519
82.6649 0 33.8858
-5.55645 0 8.19085
-0.775013 0 24.4734
32.9496 0 -79.6068
0.138047 0 53.0641
-15.7646 0 -32.4956
14.6794 0 -10.861
-0.74985 0 6.19747
-34.5448 0 19.6575
12.7885 0 -15.8474
0 0 0
18.2435 0 6.95647
-4.15709 0 -11.3407
10.9303 0 9.48427
0 0 0
-2.96587 0 12.95
-5.3809 0 -13.2671
17.529 0 72.7747
-31.5378 0 -25.3394
10.4495 0 -47.8227
11.4632 0 6.44547
-2.52634 0 -8.00278
12.397 0 4.53114
-1.21551 0 9.91652
21.7107 0 3.20981
-32.2346 0 15.9064
40.2141 0 4.29001
-16.7672 0 0.718527
-8.3582 0 3.33998
-15.719 0 15.0711
33.6276 0 23.4204
-14.1953 0 8.09909
-26.1073 0 -9.56513
4.74504 0 25.7646
-63.6822 0 -14.2178
5.36413 0 -9.73102
-8.36696 0 -26.2556
0 0 0
9.40668 0 26.1084
-20.0808 0 1.11845
-11.9162 0 -1.8498
-10.3305 0 -8.77466
-17.2918 0 2.78455
-3.72099 0 -5.9354
9.66915 0 -30.7724
17.5658 0 24.3753
11.6538 0 -3.66412
9.83681 0 27.3369
-30.3544 0 -16.1042
8.11117 0 20.4398
-64.8478 0 39.5504
83.2917 0 -50.2225
-0.635162 0 6.66396
31.3782 0 40.7253
32.0087 0 -17.555
-50.213 0 -10.9076
-13.1136 0 22.1394
-24.3487 0 -12.434
-11.3586 0 87.1462
-12.5398 0 57.1945
17.2914 0 25.9715
29.3129 0 -137.712
-48.0199 0 58.2566
-30.485 0 11.0075
29.7353 0 -10.413
-9.81431 0 -11.2867
14.6569 0 -5.92872
-17.7439 0 -7.44611
23.9164 0 -4.04742
15.7281 0 1.48477
2.25747 0 0.169516
7.8819 0 9.22364
-80.2161 0 -32.0915
15.5365 0 8.07013
-6.76532 0 14.0963
-3.06679 0 -10.2156
8.64578 0 1.86669
0 0 0
3.02362 0 32.4793
-6.915 0 16.2386
6.53608 0 4.55299
-13.1154 0 20.4347
7.77732 0 -1.80402
0.92489 0 -9.5733
0 0 0
-43.5288 0 1.85824
58.5665 0 -25.3809
0 0 0
-1.99079 0 5.57967
0.871611 0 9.55036
6.42073 0 -18.6962
-4.93569 0 -11.7712
-22.5392 0 -0.94518
-1.15275 0 13.3794
0 0 0
75.872 0 10.914
-6.75239 0 -4.0719
48.7826 0 -11.1426
-7.56502 0 10.6672
27.9178 0 3.03677
-15.1021 0 4.75177
14.1877 0 -12.8778
-6.33884 0 -60.1681
-2.46432 0 3.37062
-32.151 0 124.592
39.9575 0 1.50605
6.4458 0 9.70372
-51.8132 0 8.66908
30.1541 0 -9.51551
18.896 0 8.8091
-6.2019 0 -26.1174
-19.6966 0 54.3951
-29.5428 0 -51.7549
-19.2528 0 14.2547
-33.9843 0 -70.7752
-7.39328 0 19.025
16.5489 0 -17.4707
27.5357 0 -11.5192
6.71981 0 7.24501
-8.98168 0 0.196675
-62.2448 0 -48.0405
-93.6697 0 -33.9745
79.857 0 89.6041
5.64876 0 10.8484
-7.59436 0 -4.46259
-33.5106 0 -19.4098
18.3643 0 34.5485
-11.4719 0 5.88731
-8.4355 0 -3.77327
-10.5817 0 -16.5321
22.2444 0 1.99801
10.7344 0 -3.78081
18.8617 0 9.66555
67.9322 0 -7.5078
1.87957 0 0.728045
9.33595 0 5.40595
1.5194 0 11.7559
-102.159 0 -1.19248
51.6149 0 -77.8935
-35.2722 0 -125.35
0 0 0
-19.9142 0 -37.2671
13.5111 0 8.43401
-16.2591 0 -8.25606
-35.5899 0 11.1603
5.14236 0 -11.4319
40.0899 0 1.53199
2.36133 0 -10.4154
-8.66704 0 5.67177
0.13152 0 -0.778531
3.8377 0 14.3711
-2.99569 0 -10.7905
-16.7202 0 7.96942
-7.75372 0 -24.834
-10.9186 0 -0.795016
4.39197 0 11.1402
1.40317 0 9.53919
-11.0171 0 -18.6256
-25.6514 0 10.4899
28.0144 0 -27.9526
-16.5885 0 -0.374798
-6.4568 0 -37.3726
28.3952 0 -131.448
34.9366 0 14.8831
-29.5881 0 11.3468
-2.56219 0 37.5794
67.2281 0 -52.551
-47.2935 0 30.9995
63.8939 0 -20.1856
-7.25016 0 25.2258
-20.3641 0 -0.146589
-25.5404 0 0.0847572
91.2161 0 4.16543
16.0188 0 -9.37594
-12.7406 0 8.62894
23.2763 0 25.4726
-39.2696 0 27.9903
53.5704 0 -3.46163
0.695635 0 29.6865
-14.1561 0 5.92212
79.9748 0 2.63339
-105.557 0 3.00549
76.0943 0 12.3975
-0.896993 0 12.3588
17.083 0 -23.8896
-37.0065 0 26.7885
-23.5691 0 -19.1423
61.3453 0 17.5993
8.59278 0 -14.732
-19.0726 0 -5.63149
-1.13452 0 23.4348
1.51402 0 -4.71256
0.284556 0 5.22793
2.11677 0 -15.1688
2.31754 0 8.36691
-7.19784 0 -6.77275
-3.79196 0 -4.7658
91.8727 0 2.39005
18.4567 0 -10.0879
27.2692 0 18.0881
60.0368 0 76.1271
15.7729 0 16.7444
-11.7847 0 4.31789
-46.3604 0 5.77776
-10.5466 0 4.77497
-4.04066 0 -14.8739
-26.1524 0 -30.2426
0.0946618 0 0.478393
41.6837 0 -12.2259
-35.8786 0 7.57001
-25.9185 0 -16.3189
6.74478 0 27.1051
28.7083 0 -34.1494
-2.05795 0 12.1634
4.9025 0 11.7451
14.9296 0 7.09949
-59.9328 0 -98.5411
-19.0093 0 33.8112
-26.9485 0 -9.32725
-8.89231 0 19.8534
21.4883 0 -19.9453
25.3183 0 74.0053
10.8656 0 0.33105
-30.6198 0 -14.5005
-75.4312 0 14.9857
72.0241 0 -16.4516
-8.17835 0 44.0227
-7.04309 0 -18.1533
-5.34226 0 16.9026
9.87199 0 -5.59462
20.0504 0 4.58182
-19.9724 0 22.6492
-57.282 0 0.632084
11.1818 0 -4.35324
-17.573 0 2.53226
8.7433 0 -11.8677
-7.72006 0 21.1272
-55.899 0 13.8669
42.7667 0 -39.8193
14.4341 0 10.9345
28.4035 0 45.0629
7.44967 0 -62.1624
17.5981 0 16.3738
12.1247 0 26.862
-7.86983 0 4.07507
-12.4797 0 9.15765
-73.4345 0 33.9386
-2.78048 0 12.583
-27.5382 0 73.1407
17.7513 0 -4.40712
-9.56955 0 -3.78255
2.30653 0 15.1388
-2.09548 0 3.32389
16.1783 0 10.3129
-15.2583 0 9.1175
5.13708 0 5.58055
-92.871 0 30.0975
13.1916 0 -3.40275
-8.10802 0 -32.1807
-0.150025 0 -3.36023
54.2547 0 127.453
41.0428 0 -26.2039
-8.08491 0 14.9334
-8.7149 0 3.86475
-11.4813 0 34.0443
1.95629 0 0.138185
3.86705 0 -14.2328
-18.27 0 -7.66924
4.93534 0 5.00124
-42.1266 0 -60.9854
-2.1266 0 6.80891
69.3841 0 6.85463
-11.6944 0 -17.6286
1.53437 0 33.4835
0.481322 0 -45.3574
-8.83734 0 17.771
-44.7216 0 16.9078
-4.27317 0 13.2647
43.6549 0 119.538
34.6597 0 -7.66515
-37.799 0 -23.6062
-35.774 0 -8.61131
21.6125 0 49.4523
2.01553 0 -8.23718
113.036 0 85.3839
105.133 0 -50.2951
35.3757 0 -2.74602
-78.9979 0 31.0052
67.8005 0 -15.0262
8.21632 0 -6.37677
-2.35109 0 8.56897
-39.3811 0 -28.3879
14.8443 0 8.77258
45.6398 0 45.4153
-14.5512 0 25.4908
-2.43525 0 -0.456218
4.2309 0 -56.6806
-2.47769 0 0.70158
-34.4949 0 3.02545
19.5028 0 -48.0206
53.4166 0 -45.5074
-88.2967 0 11.8401
26.5369 0 51.1059
11.945 0 15.9632
-37.8202 0 -15.4417
23.2001 0 -12.7722
9.35039 0 -15.5882
5.31355 0 10.7551
10.9198 0 -2.83027
-33.9681 0 26.548
38.2915 0 -44.4413
-1.28956 0 -19.0939
0.952533 0 -24.7858
3.45323 0 7.32461
-69.6312 0 -16.3712
22.8744 0 -1.2528
1.65129 0 -26.7022
-33.3214 0 -1.20831
15.9707 0 -0.316954
8.78063 0 -22.7122
-54.0051 0 -39.2353
31.5953 0 -7.68945
-20.1675 0 -1.65386
10.1691 0 -9.6092
36.229 0 -5.72219
3.808 0 12.2612
-21.5884 0 20.8701
8.73483 0 -12.427
58.2006 0 70.0375
-11.5035 0 10.7527
11.0814 0 -12.8814
-1.73116 0 15.9167
-17.9582 0 -4.79637
-5.20095 0 13.4589
12.8235 0 12.6997
0.940527 0 -15.3758
-3.29007 0 5.5709
36.0839 0 -1.59865
-23.6282 0 -106.803
-4.23256 0 60.6324
57.19 0 16.8542
-13.4412 0 -6.85542
-0.0812637 0 0.487538
-1.20904 0 51.1261
-27.2092 0 13.2938
-12.3655 0 -1.37846
2.0932 0 1.51173
-0.716025 0 30.2795
17.1251 0 -31.2404
-55.0762 0 12.75
41.9947 0 -62.2502
-5.46844 0 10.0048
-8.55285 0 -45.5696
-3.26451 0 -19.3865
56.9465 0 -67.1276
-54.807 0 -21.4734
22.5904 0 11.5491
-12.9001 0 71.8289
18.8953 0 8.11911
-23.9572 0 73.4502
6.9501 0 -2.60211
0.712499 0 1.2259
20.8171 0 0.163042
-66.4783 0 -38.4498
62.246 0 2.47538
-0.195101 0 -2.21793
-13.0995 0 -20.5346
-1.00168 0 -11.948
-26.2199 0 30.9055
34.5278 0 -71.2412
-86.2839 0 -80.0584
-2.51824 0 10.9209
25.656 0 16.1283
-44.1986 0 -19.0732
-38.0776 0 0.254701
-92.7756 0 65.275
-26.8261 0 14.9226
46.1697 0 -7.31959
-15.3253 0 39.8698
-17.1659 0 81.0894
-0.752469 0 -0.0476974
-17.4573 0 1.05166
-2.39011 0 8.53178
-0.671744 0 -23.4194
7.06412 0 9.99989
-2.48931 0 -20.8366
-1.5525 0 3.33301
-9.27882 0 -6.82576
2.92725 0 -1.39116
-0.640809 0 -5.54129
9.33071 0 -6.82289
-5.23991 0 5.86613
-29.3965 0 -15.8773
17.0224 0 12.9762
36.7669 0 1.268
-0.778758 0 4.40821
29.4068 0 -16.1223
7.58415 0 13.2365
55.5797 0 -33.249
-31.223 0 63.9924
-19.3013 0 -32.178
9.21344 0 -9.18304
-32.1018 0 6.62707
-17.6224 0 61.6865
-1.52586 0 -19.4347
0.608866 0 13.1568
10.1391 0 -0.118164
-3.29426 0 2.99001
-4.55187 0 -1.01197
-5.65158 0 38.3282
-9.72876 0 -2.78096
18.8537 0 0.900203
29.7207 0 25.2661
-3.16227 0 15.5276
-0.784572 0 14.5445
24.9857 0 6.62315
13.8181 0 -12.8354
-3.39593 0 -53.073
6.17885 0 -0.474092
-32.5172 0 -14.4719
-7.28832 0 -23.5719
10.1556 0 38.2218
-6.49841 0 -3.04489
-17.5542 0 -5.91712
-28.1882 0 2.71176
43.1058 0 36.2033
14.3838 0 -36.4824
3.06435 0 12.0238
94.8372 0 -26.6921
1.74427 0 23.4029
-47.5539 0 -5.01361
13.2985 0 -42.8558
81.5455 0 75.8486
-1.46278 0 -115.274
50.0069 0 31.9038
-15.0103 0 75.6347
12.8221 0 -158.32
83.3094 0 -45.8274
8.11017 0 -3.78426
-63.39 0 -57.8816
-3.17359 0 7.10712
-9.58466 0 11.3402
0.6984 0 -19.5123
-32.8391 0 3.64007
18.8779 0 -20.7028
-2.24045 0 3.42641
18.3703 0 -0.301707
7.61607 0 -6.21997
4.55849 0 -20.8968
-17.6204 0 14.6842
8.02102 0 -2.85602
-40.7507 0 -29.2087
41.8152 0 -4.62455
-34.8204 0 41.4464
19.9416 0 -7.1722
-28.0173 0 -28.1956
2.91823 0 7.35993
-137.99 0 -35.4171
70.5174 0 66.1187
-10.988 0 10.5651
-1.39453 0 -22.9454
-59.8323 0 39.3565
-2.28602 0 -84.9023
-107.788 0 14.6549
102.551 0 50.1169
-5.59848 0 -15.2807
-1.60892 0 -1.18265
2.13882 0 2.46151
13.6828 0 -9.84105
-13.1534 0 -34.777
-54.0022 0 22.2259
-30.0851 0 39.6134
39.4255 0 -34.5083
-5.19929 0 42.501
3.84403 0 17.56
-17.4578 0 21.8705
15.6712 0 -3.10614
-80.7035 0 80.6128
71.0804 0 -26.3808
8.90364 0 1.27035
93.3417 0 -120.46
-13.2372 0 5.12111
-7.231 0 -2.75442
-12.2732 0 13.5071
-1.07656 0 9.35617
-2.99047 0 0.916633
-6.97338 0 3.26475
33.6768 0 -29.9273
11.4073 0 41.4577
-48.5283 0 -96.2886
37.528 0 8.11378
-43.4001 0 55.9698
-9.32191 0 0.776802
-8.8267 0 118.662
13.5741 0 36.3565
-55.0029 0 -97.8863
-12.9211 0 -21.55
6.4068 0 7.09607
-20.8088 0 -45.6913
-2.76203 0 49.0958
-118.897 0 51.5791
86.432 0 9.21702
16.3918 0 6.59756
30.6911 0 39.5403
65.7896 0 -88.3809
-35.8155 0 6.35447
10.539 0 14.9041
-1.03887 0 4.53233
19.6518 0 8.8011
-57.1012 0 -63.1971
49.8867 0 0.663224
0.820658 0 -10.6519
-12.0249 0 6.63448
4.94568 0 10.9924
-54.0407 0 -16.9367
60.7629 0 -39.1148
-55.44 0 -17.7948
-29.1506 0 -74.1895
-5.13664 0 1.35278
-14.1546 0 -15.8419
-37.4465 0 -5.8305
-14.0726 0 10.7511
34.5257 0 -7.69599
31.5351 0 -8.6808
15.2015 0 -37.3648
-117.918 0 -25.8959
-1.827 0 8.41972
115.55 0 13.4999
-16.2445 0 -9.38387
125.495 0 -87.8406
28.5282 0 41.0444
-133.728 0 113.314
-24.9379 0 4.65839
0.487927 0 -41.7815
4.27567 0 4.47369
-10.918 0 -6.2344
14.5175 0 -11.1881
16.9494 0 1.01423
2.31817 0 -8.11219
7.21986 0 6.41126
-6.14405 0 4.37041
22.3456 0 -57.9236
3.94004 0 -4.09862
-63.7448 0 118.161
8.08482 0 20.5781
-12.7512 0 -2.35292
-8.76373 0 -3.16429
7.23231 0 6.29484
-47.623 0 -5.95164
0.143473 0 -37.9092
18.5417 0 48.1635
3.25066 0 3.96891
0.500525 0 14.5138
-29.2762 0 35.6981
62.8444 0 34.8289
-1.62338 0 -15.1147
-32.0743 0 -10.3488
-3.24947 0 20.9223
-6.97812 0 27.7902
55.3401 0 59.8733
68.2772 0 68.3316
14.6751 0 -17.7379
-2.13179 0 1.32771
11.7747 0 7.28386
-3.42576 0 87.4482
24.4605 0 -16.3378
-0.141591 0 1.82809
14.2875 0 -11.0151
-34.8087 0 17.6775
96.7979 0 12.0973
52.337 0 76.2733
11.5055 0 -0.316424
5.45118 0 18.8026
-18.5849 0 14.0446
-28.1007 0 17.9488
34.5618 0 26.9853
10.6448 0 -5.0473
16.3607 0 83.9
-57.0809 0 -121.38
9.96812 0 -63.4304
-17.8188 0 2.69533
-8.27631 0 7.14274
-15.0728 0 -14.4018
-15.0107 0 41.8949
-0.541713 0 19.698
-18.5873 0 -2.95385
-111.531 0 -84.5877
178.431 0 30.1557
-7.24864 0 13.8504
-14.6369 0 23.4733
37.9572 0 5.40253
-9.84449 0 -87.669
-14.8942 0 8.51963
20.6792 0 43.1539
-13.8407 0 -7.2424
-4.84834 0 1.73854
50.5771 0 -58.5193
-3.7594 0 9.18462
-60.1838 0 -100.943
29.3411 0 -16.7
-0.255054 0 -11.6793
3.73637 0 2.58502
4.67726 0 -10.2248
-65.6325 0 33.4211
-7.06168 0 14.3127
-35.4629 0 -47.7987
22.5781 0 -10.2753
-6.50913 0 -70.1576
-55.0361 0 -151.239
-23.1061 0 51.7079
-1.75116 0 -7.57817
60.0013 0 -2.90538
0.0404829 0 -14.6817
2.55548 0 7.40044
23.2654 0 -56.478
-68.3911 0 30.6063
95.3251 0 -99.2986
-9.99963 0 3.51528
-1.94827 0 21.8993
-51.0179 0 -37.9355
17.0697 0 -25.3223
79.5353 0 -38.8827
-53.1305 0 3.13181
-4.16477 0 0.50433
-24.0525 0 6.46946
10.7383 0 21.0705
-15.9933 0 16.5423
22.8515 0 9.05602
4.8686 0 -31.6202
3.16782 0 -13.5226
-8.3372 0 15.5968
-10.0662 0 -32.9917
-14.1834 0 4.94287
13.295 0 -0.164217
15.998 0 14.0556
-21.719 0 3.72622
35.3868 0 -67.8158
24.0866 0 -5.21404
3.13306 0 5.32616
2.55119 0 -9.68848
-42.3987 0 6.29072
14.9213 0 -37.7138
-0.957088 0 9.49177
-11.5622 0 -28.0406
-6.34302 0 -27.6055
15.0982 0 27.4709
-48.5036 0 -17.6738
6.13023 0 20.8746
-14.86 0 -48.975
7.07061 0 -9.41051
-9.95786 0 5.97897
0.322417 0 18.9319
-18.4309 0 -5.29806
-3.22389 0 12.2967
5.26586 0 7.54511
30.8074 0 -15.985
-29.2787 0 60.3565
6.93462 0 14.1091
-9.87847 0 4.68269
59.8501 0 111.162
-46.5452 0 -82.9438
9.62875 0 2.00137
-73.9301 0 -31.854
2.14282 0 5.95391
27.8835 0 4.05556
27.0821 0 -42.7314
8.00192 0 58.9102
-73.7689 0 31.5434
50.3048 0 78.2712
80.7414 0 5.23409
3.65981 0 -2.37298
13.811 0 14.0759
-8.52988 0 11.0693
13.2283 0 0.61618
18.5135 0 -8.64695
-46.4325 0 -44.8456
-28.9724 0 80.8047
35.7215 0 16.0945
-17.5548 0 -9.26906
-10.331 0 -14.6419
-2.09815 0 -6.39397
0.861809 0 -25.7482
-64.8723 0 -1.09178
-3.57411 0 -79.7248
-6.70822 0 -12.9523
-20.5799 0 -9.04516
9.18835 0 -3.98682
-100.844 0 8.43444
11.5574 0 -9.11269
21.9283 0 -4.42105
10.6951 0 5.6563
15.729 0 4.43363
10.8561 0 5.3509
-1.82094 0 -6.11777
-8.763 0 5.42808
-31.9457 0 64.7408
-12.7991 0 -11.0525
-7.33338 0 -2.68743
5.84537 0 72.9306
-7.30047 0 13.4278
-8.37483 0 7.27737
-24.9312 0 32.7587
1.71874 0 -9.44281
-11.3281 0 -18.2687
-12.1916 0 34.3547
-1.85216 0 -13.0194
16.956 0 49.5304
-1.34726 0 11.0899
8.82141 0 39.4846
-0.4083 0 -3.69191
-24.5276 0 18.5138
-10.0659 0 -25.9652
28.4163 0 -11.5778
-10.0955 0 18.9029
0.196956 0 -16.4288
-12.1232 0 1.92093
-39.3874 0 -14.8949
-11.9249 0 -1.51404
6.94545 0 -9.61189
41.4565 0 1.30161
-2.01793 0 17.0841
25.4485 0 71.9953
-15.1396 0 -5.05244
6.0884 0 -13.8324
-4.53156 0 2.23391
-24.666 0 13.0335
36.63 0 28.7843
-7.4831 0 -11.0085
-104.507 0 15.7433
86.8132 0 131.943
-0.0710364 0 -10.1214
-40.3951 0 -29.1813
-1.57853 0 11.0117
-5.06452 0 18.0948
1.35593 0 1.99385
-7.63121 0 6.73023
8.52428 0 -32.914
52.0631 0 6.96709
2.21655 0 13.3003
-9.58644 0 -9.41432
-28.3214 0 -5.77355
-26.4643 0 -23.2339
23.3571 0 -23.4917
73.8521 0 -16.5792
-61.7347 0 74.5517
2.99726 0 -2.30705
-0.881531 0 -1.48277
9.1318 0 2.36514
2.57539 0 -17.2193
-16.8013 0 25.0696
0.572012 0 9.21268
-19.1522 0 7.90144
45.719 0 -13.3987
-2.25175 0 0.144022
-38.9707 0 -71.2003
-20.9438 0 4.13903
27.1472 0 18.0245
46.1362 0 101.242
-13.5437 0 -1.37408
12.0847 0 11.0395
29.5315 0 -18.2061
24.3775 0 -1.38709
21.4198 0 19.3827
-57.3108 0 -116.047
31.9724 0 2.55527
-31.0977 0 -13.644
1.55684 0 -14.4731
-18.029 0 10.6442
-15.5588 0 -18.1882
13.6888 0 14.0159
16.2659 0 7.97725
9.82504 0 15.1846
-1.08337 0 -8.99331
-25.4609 0 7.22472
-0.987193 0 18.6665
-1.50126 0 0.379933
-0.349998 0 15.2339
11.4857 0 11.7734
-3.83755 0 14.98
7.33743 0 1.69698
3.26158 0 6.37314
-2.62139 0 -4.44106
-7.80415 0 5.21686
10.3693 0 -5.0263
-10.9079 0 49.6132
-34.8968 0 -11.856
-8.93764 0 -5.05437
7.66329 0 -1.44357
11.253 0 4.97011
94.7333 0 -57.7988
-36.3425 0 -21.3242
-16.8685 0 -38.6496
-3.59832 0 -2.91468
35.8972 0 -49.8395
37.0129 0 -41.1732
-4.91779 0 3.2567
15.4124 0 10.0219
0.643997 0 4.2599
13.6732 0 4.03327
-28.2936 0 -29.049
10.6402 0 33.8441
49.1059 0 13.2236
3.42952 0 8.72273
9.80794 0 -16.7919
24.016 0 -22.0036
-1.86826 0 10.5919
-1.45565 0 11.469
5.50703 0 16.6858
11.9095 0 12.5696
18.0847 0 -2.27297
12.3408 0 4.67825
-4.71027 0 -11.6364
-27.6023 0 5.35948
44.3308 0 45.2976
-29.0311 0 -15.7207
-30.5548 0 -42.6224
-26.815 0 -2.49836
-7.94786 0 -52.5115
-7.26002 0 0.0484415
-10.9399 0 14.0018
-7.47341 0 4.36668
1.04364 0 -20.3164
-14.0135 0 105.456
65.8368 0 -22.5922
2.8756 0 14.7532
12.0016 0 -29.0071
12.8366 0 -6.09965
8.3245 0 -5.3414
10.4573 0 -32.1315
18.0939 0 9.34829
-7.25112 0 -45.5214
4.55304 0 1.58489
-19.5709 0 12.6971
8.67342 0 -1.10897
-1.4975 0 -1.28441
-2.9677 0 1.68233
11.6933 0 8.96299
-45.5038 0 -9.23509
33.6303 0 -12.3888
0.853636 0 7.11255
17.463 0 2.37603
-79.7552 0 -82.8577
18.8648 0 9.8955
22.9759 0 36.462
-20.8323 0 -74.2515
-42.5988 0 37.0002
26.7177 0 -10.2211
74.1079 0 24.1117
-80.746 0 23.5703
67.3823 0 13.8123
-18.5353 0 2.04121
-19.6002 0 -1.342
6.64153 0 -14.8346
-23.1578 0 -57.4253
-22.0182 0 47.3324
12.576 0 -6.81198
-9.70394 0 23.7552
-21.3807 0 -2.94166
8.73734 0 5.44532
-27.2374 0 23.1392
44.044 0 -23.3166
-11.1826 0 11.5564
-16.7323 0 0.430409
-6.41539 0 15.0793
-3.79961 0 6.72078
9.97319 0 10.4645
3.81609 0 -12.3475
-2.36044 0 0.878524
-37.644 0 3.23892
-26.5109 0 -20.9161
5.40115 0 -29.7793
-3.7581 0 4.19442
-32.5473 0 13.2275
24.0779 0 -29.3296
6.74815 0 10.7364
-3.01535 0 -14.4911
-17.314 0 3.64705
2.39481 0 0.793139
2.04009 0 10.1832
-8.22292 0 6.73125
-55.5682 0 13.4037
-30.4363 0 88.5579
-1.86046 0 68.7297
10.0497 0 30.952
3.69031 0 -41.542
3.04996 0 24.6889
-56.8318 0 10.1277
40.5277 0 3.12561