# vtk DataFile Version 3.0
SiWiRVisFile
ASCII
DATASET UNSTRUCTURED_GRID
POINTS 1600 DOUBLE
76.6018 100 72.6
76.8023 100 73.6903
77.7401 100 74.2525
79.7089 100 73.9858
80.8094 100 74.417
81.8592 100 74.7999
83.8969 100 74.6989
84.8326 100 75.2199
85.8647 100 75.56
84.8226 100 74.0493
91.4563 100 73.1379
91.2302 100 71.6289
90.6512 100 73.9355
89.7503 100 71.2305
88.6057 100 70.8493
91.1058 100 63.2768
92.1374 100 63.9009
94.2403 100 62.6231
91.1755 100 58.216
96.203 100 60.6998
103.862 100 44.5515
105.845 100 46.0609
106.012 100 44.9263
106.935 100 45.6891
104.876 100 44.3138
109.671 100 45.3776
110.339 100 39.6954
111.298 100 39.0256
110.632 100 40.7647
111.821 100 40.2947
112.907 100 40.3868
113.971 100 40.721
113.027 100 38.9893
114.027 100 39.6237
114.949 100 45.3292
119.615 100 44.3173
117.557 100 45.685
118.48 100 44.9223
118.637 100 46.058
120.625 100 44.5477
128.735 100 60.3634
133.317 100 58.216
130.08 100 62.2804
132.213 100 64.0712
133.324 100 63.4376
135.743 100 70.8909
134.845 100 71.3879
134.343 100 73.2859
133.115 100 71.5617
133.115 100 73.1798
139.671 100 74.0631
138.636 100 75.538
139.677 100 75.2261
140.608 100 74.6971
142.63 100 74.791
143.682 100 74.4025
144.798 100 73.9782
146.753 100 74.2514
147.689 100 73.6906
147.89 100 72.6019
75.9327 100 74.3721
76.8995 100 74.8769
78.8516 100 74.6677
79.927 100 75.0952
80.9675 100 75.5457
82.8384 100 75.4572
83.8208 100 75.8778
84.9646 100 76.2533
85.9037 100 76.7579
87.0239 100 76.9728
88.1287 100 76.7281
92.2637 100 71.2677
90.1406 100 72.3464
90.9373 100 68.5534
92.6116 100 65.7057
90.7258 100 70.6825
93.3551 100 63.1778
95.3553 100 61.4282
96.5907 100 61.9453
98.1207 100 61.8715
104.976 100 45.4328
98.213 100 51.44
106.202 100 53.4232
110.78 100 43.6449
107.33 100 44.2658
108.985 100 46.2532
109.833 100 44.2572
109.797 100 43.119
108.082 100 38.9571
111.463 100 41.4149
113.059 100 41.4801
116.469 100 38.9817
114.631 100 43.1159
114.598 100 44.2347
115.488 100 46.3257
117.153 100 44.2689
113.638 100 43.5886
118.387 100 52.8806
126.279 100 51.44
119.511 100 45.4407
126.198 100 61.7426
128.175 100 61.978
129.076 100 61.4374
131.107 100 63.5529
133.816 100 70.7536
131.868 100 65.7576
133.256 100 68.5752
134.218 100 72.2724
132.128 100 71.2353
136.317 100 77.025
137.381 100 76.9053
138.59 100 76.7492
139.537 100 76.2587
140.68 100 75.8794
141.653 100 75.4474
143.519 100 75.5401
144.563 100 75.0923
145.645 100 74.6627
147.595 100 74.8748
148.562 100 74.3689
76.0579 100 75.5803
77.209 100 76.0906
77.9676 100 75.2864
79.037 100 75.8276
80.0421 100 76.2906
81.9079 100 76.0927
82.9516 100 76.5946
84.0008 100 76.9785
85.0621 100 77.5028
86.3086 100 77.7225
87.5575 100 78.0601
88.7083 100 78.18
90.2474 100 76.4717
91.6177 100 70.0629
92.5631 100 67.9608
93.2993 100 66.7085
93.4557 100 64.4899
94.4675 100 63.8057
95.2546 100 62.8569
97.2944 100 61.162
98.492 100 60.7655
104.374 100 54.6025
105.285 100 54.1047
106.511 100 54.4624
103.495 100 50.7639
107.287 100 53.3744
106.792 100 52.3687
105.618 100 52.4908
110.346 100 41.8704
111.188 100 42.5361
113.35 100 42.5348
114.171 100 41.7635
119.473 100 51.4566
117.062 100 52.0194
117.485 100 53.3543
120.552 100 51.5621
117.531 100 54.4256
118.712 100 54.3577
120.968 100 54.96
125.823 100 60.6347
127.228 100 61.4458
128.864 100 62.7831
130.083 100 63.3963
130.858 100 64.5255
131.366 100 66.6919
132.004 100 67.6206
133.052 100 69.8687
133.678 100 76.8781
135.636 100 77.8899
136.92 100 77.9271
138.098 100 77.7461
139.409 100 77.5126
140.496 100 76.9823
141.558 100 76.5855
142.574 100 76.1117
144.443 100 76.2842
145.457 100 75.8237
146.527 100 75.2883
147.283 100 76.091
148.438 100 75.5776
76.3335 100 76.6952
77.2423 100 77.2258
78.1706 100 76.4722
79.1931 100 77.0264
80.9791 100 76.7431
82.0369 100 77.1718
83.1377 100 77.8844
84.3092 100 78.2475
85.5143 100 78.4977
86.5777 100 78.7571
88.1136 100 79.1246
89.7499 100 78.3633
89.2041 100 76.8339
92.7138 100 70.0558
92.0623 100 69.0858
93.6265 100 67.782
94.6362 100 66.1437
93.6974 100 65.6916
94.5405 100 65.0238
95.5638 100 63.8819
96.5924 100 63.2855
99.3494 100 61.4883
104.438 100 53.3919
105.286 100 57.8124
105.257 100 55.3175
106.442 100 55.5333
108.869 100 55.2861
110.206 100 55.343
107.815 100 52.4234
111.705 100 44.231
112.72 100 44.226
116.365 100 52.8541
114.853 100 54.2834
115.596 100 55.2474
118.393 100 55.3427
119.599 100 55.2992
119.446 100 56.8689
120.1 100 54.2807
125.061 100 61.5905
127.648 100 63.5004
129.05 100 63.8004
129.73 100 64.6208
130.861 100 65.5487
130.296 100 66.6051
130.737 100 67.689
132.116 100 69.0563
131.953 100 70.1627
135.207 100 76.8601
134.782 100 78.5932
136.422 100 79.0365
137.754 100 78.7695
138.895 100 78.4873
140.147 100 78.3298
141.371 100 77.9399
142.425 100 77.2684
143.504 100 76.7406
145.288 100 77.0129
146.322 100 76.4673
147.249 100 77.2274
148.157 100 76.6937
76.3973 100 77.9256
77.3875 100 78.2992
78.2759 100 77.6838
80.1531 100 77.5562
81.1247 100 77.876
82.1648 100 78.354
83.3825 100 78.9476
84.6398 100 79.3581
85.7905 100 79.5866
87.0642 100 79.7617
87.6258 100 80.7746
90.4088 100 79.3853
90.6997 100 77.7144
94.3505 100 68.5373
93.2373 100 68.8589
95.7231 100 66.9995
96.2939 100 66.0665
95.6317 100 64.9888
96.8105 100 64.6323
97.592 100 63.8301
97.4314 100 62.7342
103.183 100 61.2063
105.547 100 56.6094
107.131 100 56.3395
107.391 100 55.2707
108.328 100 56.3589
109.466 100 56.0984
110.086 100 57.0253
108.175 100 54.1199
111.33 100 46.5353
113.143 100 46.4823
116.277 100 54.0508
113.957 100 56.8299
115.101 100 56.252
116.195 100 56.439
116.715 100 55.2626
117.258 100 56.4889
117.866 100 57.3778
121.262 100 61.2998
126.994 100 62.5199
126.577 100 63.7303
127.208 100 64.6962
128.769 100 65.1325
129.669 100 65.8159
128.394 100 67.236
131.086 100 69.3789
130.264 100 68.6221
133.94 100 77.8727
133.866 100 79.2087
136.843 100 80.7816
137.402 100 79.7641
138.573 100 79.5675
139.704 100 79.3814
141.188 100 78.9686
142.326 100 78.394
143.374 100 77.8959
144.335 100 77.5481
146.204 100 77.6801
147.096 100 78.2907
148.089 100 77.9345
76.2571 100 78.9948
77.288 100 79.416
78.4185 100 78.855
79.2998 100 78.2098
80.3526 100 78.73
81.3135 100 79.125
82.4179 100 79.4952
83.2725 100 80.236
84.302 100 80.3302
85.4366 100 80.6364
86.578 100 80.7819
89.2444 100 79.3115
90.9834 100 80.3473
90.1805 100 75.3636
91.3855 100 74.6605
94.6431 100 67.3801
96.6437 100 67.6472
97.3085 100 66.853
97.2588 100 65.6102
98.6303 100 64.3132
98.6004 100 63.1276
101.106 100 62.562
103.605 100 59.5889
104.722 100 60.0066
106.447 100 57.4922
107.709 100 57.4459
108.152 100 58.3985
108.919 100 57.2099
111.406 100 57.2029
111.298 100 55.0064
113.709 100 54.8442
112.736 100 57.2727
115.069 100 57.4141
115.865 100 58.0979
116.727 100 57.5016
118.901 100 57.8495
119.505 100 58.6975
120.663 100 60.3242
123.488 100 62.4372
125.92 100 62.8464
125.984 100 64.7648
127.849 100 65.8957
127.415 100 66.8413
127.789 100 68.1347
129.645 100 67.5802
132.841 100 74.9098
134.359 100 74.8718
133.469 100 80.2954
135.575 100 79.6698
137.946 100 80.7501
139.099 100 80.5909
140.212 100 80.3409
141.182 100 80.1669
142.13 100 79.5717
143.228 100 79.0928
144.155 100 78.7189
145.19 100 78.2026
146.079 100 78.8533
147.202 100 79.4098
148.23 100 78.9927
75.2284 100 79.4895
76.3653 100 80.0851
78.4822 100 79.9851
79.4463 100 79.3296
80.4705 100 79.7887
80.669 100 81.6303
82.2816 100 80.6141
83.5747 100 81.1855
84.6968 100 81.4
85.8828 100 81.7455
87.0577 100 81.8012
89.8044 100 80.379
91.654 100 81.4455
91.145 100 75.8488
95.1875 100 69.2999
95.6914 100 68.186
97.439 100 69.1061
98.638 100 66.9809
98.2544 100 65.8987
99.6192 100 63.7022
99.7177 100 62.582
102.173 100 62.0136
104.23 100 60.9994
107.068 100 58.4605
109.174 100 58.9621
109.714 100 58.1054
109.437 100 61.2954
110.925 100 58.1337
108.945 100 62.2555
109.66 100 63.0471
114.683 100 62.3265
115.522 100 61.6179
113.983 100 57.9706
114.513 100 61.062
115.036 100 58.6948
115.964 100 59.3349
117.58 100 58.5033
120.158 100 61.2238
122.361 100 62.0777
124.662 100 62.6729
125.416 100 63.8596
126.562 100 65.7019
126.155 100 66.7549
126.991 100 68.8943
128.888 100 68.4432
129.198 100 69.424
133.484 100 75.8274
132.296 100 81.7459
134.573 100 80.0491
137.456 100 81.8329
138.644 100 81.7292
139.784 100 81.4351
141.017 100 81.1802
142.115 100 80.7351
143.92 100 81.4977
144.032 100 79.8102
145.041 100 79.3274
146.002 100 79.9733
148.119 100 80.0777
149.248 100 79.5104
75.2414 100 80.5678
76.2504 100 81.0876
77.3095 100 80.7967
78.5523 100 81.2397
79.4339 100 80.5893
79.5902 100 81.8289
81.7043 100 81.6629
82.7652 100 81.8256
83.961 100 82.2608
85.3437 100 82.8946
86.5346 100 82.7512
87.6782 100 82.8094
88.6405 100 80.7162
88.2771 100 81.7292
88.7655 100 82.6195
92.3551 100 80.4343
96.515 100 70.0701
97.7023 100 67.9995
100.532 100 66.5966
99.4141 100 66.0266
99.7815 100 64.9826
100.556 100 64.1758
103.761 100 62.2208
106.305 100 59.4197
107.557 100 59.4945
109.197 100 60.1309
108.056 100 60.4756
106.481 100 62.8679
107.958 100 63.2298
109.856 100 64.7968
115.165 100 64.6725
117.368 100 62.8832
118.536 100 63.2855
115.776 100 60.4264
114.747 100 59.7372
117.298 100 59.5288
118.439 100 59.2047
120.842 100 62.3714
123.67 100 64.0347
124.544 100 64.7544
125.454 100 65.6272
125.058 100 67.0551
126.599 100 67.8806
128.005 100 69.7039
132.046 100 80.409
135.562 100 82.5637
136.363 100 81.8841
135.8 100 80.6705
136.803 100 83.0011
137.984 100 82.7816
139.028 100 82.9529
140.506 100 82.293
141.805 100 81.8507
142.774 100 81.5806
144.99 100 81.7134
145.053 100 80.6075
145.956 100 81.2641
147.171 100 80.8039
148.246 100 81.0669
149.279 100 80.5938
75.3595 100 81.7191
76.5858 100 82.2057
77.6461 100 81.8662
78.8084 100 82.6018
79.4363 100 83.8252
78.494 100 84.7535
80.0905 100 82.7495
81.2421 100 82.705
82.6681 100 82.8897
81.8996 100 83.6669
84.1609 100 83.4266
85.9113 100 83.8863
87.1507 100 83.7594
88.4961 100 83.7224
89.6756 100 83.0932
91.6719 100 79.1246
97.4237 100 71.2477
97.8874 100 70.2309
99.5483 100 67.5272
100.766 100 67.8924
[...]
POINT_DATA 1600
SCALARS mass double
LOOKUP_TABLE default
1
1
1
1
1
1
1
1
1
1
1
1
1
1
1
1
1
1
1
1
1
1
1
1
1
1
1
1
1
1
1
1
1
1
1
1
1
1
1
1
1
1
1
1
1
1
1
1
1
1
1
1
1
1
1
1
1
1
1
1
1
1
1
1
1
1
1
1
1
1
1
1
1
1
1
1
1
1
1
1
1
1
1
1
1
1
1
1
1
1
1
1
1
1
1
1
1
1
1
1
1
1
1
1
1
1
1
1
1
1
1
1
1
1
1
1
1
1
1
1
1
1
1
1
1
1
1
1
1
1
1
1
1
1
1
1
1
1
1
1
1
1
1
1
1
1
1
1
1
1
1
1
1
1
1
1
1
1
1
1
1
1
1
1
1
1
1
1
1
1
1
1
1
1
1
1
1
1
1
1
1
1
1
1
1
1
1
1
1
1
1
1
1
1
1
1
1
1
1
1
1
1
1
1
1
1
1
1
1
1
1
1
1
1
1
1
1
1
1
1
1
1
1
1
1
1
1
1
1
1
1
1
1
1
1
1
1
1
1
1
1
1
1
1
1
1
1
1
1
1
1
1
1
1
1
1
1
1
1
1
1
1
1
1
1
1
1
1
1
1
1
1
1
1
1
1
1
1
1
1
1
1
1
1
1
1
1
1
1
1
1
1
1
1
1
1
1
1
1
1
1
1
1
1
1
1
1
1
1
1
1
1
1
1
1
1
1
1
1
1
1
1
1
1
1
1
1
1
1
1
1
1
1
1
1
1
1
1
1
1
1
1
1
1
1
1
1
1
1
1
1
1
1
1
1
1
1
1
1
1
1
1
1
1
1
1
1
1
1
1
1
1
1
1
1
1
1
1
1
1
1
1
1
1
1
1
1
1
1
1
1
1
1
1
1
1
1
1
1
1
1
1
1
1
1
1
1
1
1
1
1
1
1
1
1
1
1
1
1
1
1
1
1
1
1
1
1
1
1
1
1
1
1
1
1
1
1
1
1
1
1
1
1
1
1
1
1
1
1
1
1
1
1
1
1
1
1
1
1
1
1
1
1
1
1
1
1
1
1
1
1
1
1
1
1
1
1
1
1
1
1
1
1
1
1
1
1
1
1
1
1
1
1
1
1
1
1
1
1
1
1
1
1
1
1
1
1
1
1
1
1
1
1
1
1
1
1
1
1
1
1
1
1
1
1
1
1
1
1
1
1
1
1
1
1
1
1
1
1
1
1
1
1
1
1
1
1
1
1
1
1
1
1
1
1
1
1
1
1
1
1
1
1
1
1
1
1
1
1
1
1
1
1
1
1
1
1
1
1
1
1
1
1
1
1
1
1
1
1
1
1
1
1
1
1
1
1
1
1
1
1
1
1
1
1
1
1
1
1
1
1
1
1
1
1
1
1
1
1
1
1
1
1
1
1
1
1
1
1
1
1
1
1
1
1
1
1
1
1
1
1
1
1
1
1
1
1
1
1
1
1
1
1
1
1
1
1
1
1
1
1
1
1
1
1
1
1
1
1
1
1
1
1
1
1
1
1
1
1
1
1
1
1
1
1
1
1
1
1
1
1
1
1
1
1
1
1
1
1
1
1
1
1
1
1
1
1
1
1
1
1
1
1
1
1
1
1
1
1
1
1
1
1
1
1
1
1
1
1
1
1
1
1
1
1
1
1
1
1
1
1
1
1
1
1
1
1
1
1
1
1
1
1
1
1
1
1
1
1
1
1
1
1
1
1
1
1
1
1
1
1
1
1
1
1
1
1
1
1
1
1
1
1
1
1
1
1
1
1
1
1
1
1
1
1
1
1
1
1
1
1
1
1
1
1
1
1
1
1
1
1
1
1
1
1
1
1
1
1
1
1
1
1
1
1
1
1
1
1
1
1
1
1
1
1
1
1
1
1
1
1
1
1
1
1
1
1
1
1
1
1
1
1
1
1
1
1
1
1
1
1
1
1
1
1
1
1
1
1
1
1
1
1
1
1
1
1
1
1
1
1
1
1
1
1
1
1
1
1
1
1
1
1
1
1
1
1
1
1
1
1
1
1
1
1
1
1
1
1
1
1
1
1
1
1
1
1
1
1
1
1
1
1
1
1
1
1
1
1
1
1
1
1
1
1
1
1
1
1
1
1
1
1
1
1
1
1
1
1
1
1
1
1
1
1
1
1
1
1
1
1
1
1
1
1
1
1
1
1
1
1
1
1
1
1
1
1
1
1
1
1
1
1
1
1
1
1
1
1
1
1
1
1
1
1
1
1
1
1
1
1
1
1
1
1
1
1
1
1
1
1
1
1
1
1
1
1
1
1
1
1
1
1
1
1
1
1
1
1
1
1
1
1
1
1
1
1
1
1
1
1
1
1
1
1
1
1
1
1
1
1
1
1
1
1
1
1
1
1
1
1
1
1
1
1
1
1
1
1
1
1
1
1
1
1
1
1
1
1
1
1
1
1
1
1
1
1
1
1
1
1
1
1
1
1
1
1
1
1
1
1
1
1
1
1
1
1
1
1
1
1
1
1
1
1
1
1
1
1
1
1
1
1
1
1
1
1
1
1
1
1
1
1
1
1
1
1
1
1
1
1
1
1
1
1
1
1
1
1
1
1
1
1
1
1
1
1
1
1
1
1
1
1
1
1
1
1
1
1
1
1
1
1
1
1
1
1
1
1
1
1
1
1
1
1
1
1
1
1
1
1
1
1
1
1
1
1
1
1
1
1
1
1
1
1
1
1
1
1
1
1
1
1
1
1
1
1
1
1
1
1
1
1
1
1
1
1
1
1
1
1
1
1
1
1
1
1
1
1
1
1
1
1
1
1
1
1
1
1
1
1
1
1
1
1
1
1
1
1
1
1
1
1
1
1
1
1
1
1
1
1
1
1
1
1
1
1
1
1
1
1
1
1
1
1
1
1
1
1
1
1
1
1
1
1
1
1
1
1
1
1
1
1
1
1
1
1
1
1
1
1
1
1
1
1
1
1
1
1
1
1
1
1
1
1
1
1
1
1
1
1
1
1
1
1
1
1
1
1
1
1
1
1
1
1
1
1
1
1
1
1
1
1
1
1
1
1
1
1
1
1
1
1
1
1
1
1
1
1
1
1
1
1
1
1
1
1
1
1
1
1
1
1
1
1
1
1
1
1
1
1
1
1
1
1
1
1
1
1
1
1
1
1
1
1
1
1
1
1
1
1
1
1
1
1
1
1
1
1
1
1
1
1
1
1
1
1
1
1
1
1
1
1
1
1
1
1
1
1
1
1
1
1
1
1
1
1
1
1
1
1
1
1
1
1
1
1
1
1
1
1
1
1
1
1
1
1
1
1
1
1
1
1
1
1
1
1
1
1
1
1
1
1
1
1
1
1
1
1
1
1
1
1
1
1
1
1
1
1
1
1
1
1
1
1
1
1
1
1
1
1
1
1
1
1
1
1
1
1
1
1
1
1
1
1
1
1
1
1
1
1
1
1
1
1
1
1
1
1
1
1
1
1
1
1
1
1
1
1
1
1
1
1
1
1
1
1
1
1
1
1
1
1
1
1
1
1
1
1
1
1
1
1
1
1
1
1
1
1
1
1
1
1
1
1
1
1
1
1
1
1
1
1
1
1
1
1
1
1
1
VECTORS force double
-0.733938 0 -2.15091
-2.4122 0 7.66342
46.5984 0 -48.8555
16.6778 0 2.07038
-8.48646 0 0.609468
3.49349 0 24.1023
-28.9949 0 5.70706
-9.28819 0 -43.0151
9.80152 0 18.6517
-1.32526 0 12.6841
-7.02819 0 -1.28334
-11.0343 0 30.027
-45.316 0 -43.0828
-3.07297 0 7.4077
11.7515 0 3.92841
10.0771 0 5.83495
4.69755 0 -5.48398
-4.48676 0 -26.1398
0 0 0
14.4847 0 14.3511
-43.1478 0 16.7122
25.6715 0 5.08663
-3.15684 0 7.03207
-13.4153 0 -11.0493
60.783 0 -5.0943
3.66017 0 -5.61017
9.88038 0 -6.75974
-1.35729 0 15.5165
-17.1875 0 -18.2013
-29.876 0 3.19062
16.7518 0 -17.251
-13.2752 0 -14.6982
4.54186 0 16.2721
-16.7026 0 -7.16961
-1.36784 0 -4.04978
-66.7033 0 -4.80128
11.7752 0 -11.6888
3.3799 0 7.1604
-24.9102 0 6.06072
48.9916 0 17.6041
-1.51399 0 4.98699
0 0 0
-18.3742 0 -0.781054
-9.21461 0 -5.40491
-10.5526 0 5.78851
60.042 0 -33.7345
-65.2689 0 16.4655
-2.534 0 80.223
44.8356 0 41.4842
17.6893 0 -5.34924
1.41112 0 12.0268
-7.42465 0 20.4828
9.78137 0 -41.7276
28.8506 0 6.11251
-2.32852 0 22.8061
9.26507 0 3.58746
-20.0753 0 2.02224
-47.6077 0 -45.7501
3.55489 0 7.54543
0.842021 0 -2.68331
-11.3282 0 9.05051
-9.85136 0 31.2195
5.935 0 5.96619
-10.6038 0 15.4631
-17.0729 0 1.45612
-23.7139 0 -14.1667
43.1816 0 -2.68042
-35.2175 0 50.7624
8.27587 0 -37.082
40.8931 0 -31.3352
-21.2137 0 10.0828
5.56135 0 -23.0682
11.7708 0 -12.5113
14.8949 0 8.02265
-3.46194 0 3.85132
-19.1013 0 -10.6483
-34.861 0 46.1667
6.88002 0 15.363
-31.4387 0 31.9477
27.0931 0 4.24208
-18.3334 0 -21.7261
0 0 0
-13.8712 0 -13.5181
-4.07035 0 -13.9192
-7.82383 0 9.19766
-2.00163 0 1.83814
2.21177 0 -2.42439
7.5858 0 -7.668
0.264776 0 0.0866092
25.3357 0 23.6727
5.81992 0 -10.8111
0 0 0
-3.20613 0 -14.7891
-5.81993 0 2.4584
-1.23276 0 -2.8664
7.59269 0 9.28533
2.81913 0 16.6202
70.595 0 -34.6175
0 0 0
19.1665 0 -23.3663
-34.7405 0 1.57639
-54.207 0 10.149
40.1022 0 -5.03934
91.7197 0 -94.4683
19.348 0 -15.5129
76.6371 0 -17.6766
-16.8806 0 13.9414
-34.7172 0 -71.3691
-44.2058 0 -6.34751
-26.2435 0 -13.9566
33.2758 0 -7.74203
-32.4141 0 1.08033
31.7152 0 48.4608
-45.2425 0 -0.650701
27.3694 0 -15.208
11.452 0 3.03387
10.2195 0 12.5961
-3.34133 0 9.34978
9.31798 0 31.0487
11.0542 0 8.97894
6.66514 0 4.74887
-46.3009 0 -47.6762
2.02326 0 54.7243
4.81225 0 -19.7558
-34.1586 0 -25.9293
14.0213 0 -13.3487
8.07048 0 -6.90859
14.2571 0 18.6288
20.7671 0 -47.4943
-27.0303 0 58.0931
-10.4601 0 -0.754142
-34.2139 0 -8.64381
-0.443853 0 19.2607
-4.23325 0 20.4468
-20.7733 0 9.89233
-1.85776 0 7.14695
13.2452 0 1.64964
-19.8398 0 -4.99621
46.7111 0 -8.38384
18.1421 0 -40.1505
-14.8379 0 12.8161
-43.2873 0 16.9543
69.5353 0 -13.2917
6.30622 0 -9.53164
0 0 0
6.35585 0 26.4194
-90.3586 0 7.73741
1.78248 0 0.508331
-8.82953 0 -13.0331
11.6607 0 19.219
6.99201 0 2.31818
0.633266 0 36.9502
-17.1112 0 0.0269047
15.0228 0 0.308634
-92.1002 0 10.6248
15.7495 0 1.53981
2.3987 0 32.8535
19.7517 0 -55.3624
-2.77449 0 6.33449
-1.31354 0 20.4179
10.4993 0 -22.119
22.2223 0 -38.6899
-60.7899 0 6.74926
-28.8984 0 27.6899
-4.4044 0 28.3168
-10.9345 0 8.77665
-7.68296 0 -5.87065
-10.2164 0 -36.4217
14.2216 0 13.945
10.1231 0 30.1858
-2.40454 0 -17.9812
0.547475 0 -25.6795
-10.6897 0 13.6431
-9.56764 0 1.32242
-7.47722 0 -0.0389854
31.2169 0 -26.633
-8.41382 0 -19.9209
-3.3192 0 50.2652
48.6297 0 -48.7797
-6.74843 0 5.07459
-55.9011 0 2.49358
50.9543 0 -11.2812
38.4556 0 43.8608
-16.2508 0 -8.33425
47.7467 0 21.7567
-12.5098 0 40.8508
21.7989 0 -40.4823
-29.4614 0 23.7557
-27.7072 0 15.1115
24.2023 0 22.4113
-13.3203 0 2.27693
53.6502 0 -9.43159
13.1615 0 13.9764
4.40543 0 -7.46283
19.323 0 -30.8707
-23.5331 0 -28.129
51.1737 0 37.7787
-43.8328 0 -30.9754
-2.90296 0 -32.074
26.317 0 20.316
-104.488 0 64.9737
-9.63662 0 12.585
2.97188 0 5.26523
15.4769 0 -12.9884
16.6191 0 -4.9763
-194.05 0 44.3339
-67.8709 0 -79.05
17.6157 0 -22.9083
80.251 0 -4.89326
-81.6774 0 3.7094
88.7908 0 -1.51846
2.14662 0 28.0434
4.86834 0 14.017
0.929412 0 -7.97025
-19.5772 0 50.0894
-10.674 0 -8.54763
-3.79732 0 -3.05884
-16.6297 0 -0.756739
13.0757 0 3.65286
13.7776 0 -4.82953
-19.1367 0 45.69
41.086 0 17.6791
-83.0086 0 80.1581
46.0751 0 84.0975
43.5165 0 -54.7378
35.6289 0 -11.4124
-2.89068 0 -18.8538
-9.00874 0 1.97243
12.297 0 15.8706
44.5282 0 -31.5282
3.25898 0 -22.2171
15.2775 0 24.4733
13.9983 0 6.65371
-29.7842 0 -80.8041
9.47635 0 1.09985
-47.6582 0 27.9429
21.1013 0 -6.66684
-41.6244 0 46.3125
-50.9311 0 -16.4104
57.2078 0 3.55183
-34.3307 0 -35.035
19.9827 0 46.9847
19.4475 0 -11.3544
-41.3792 0 -37.9806
78.3554 0 33.0685
-17.1579 0 10.7711
14.3928 0 17.4747
27.6342 0 -74.2972
8.60314 0 -2.10394
2.41539 0 1.79185
-47.0775 0 10.667
-7.48229 0 -8.99905
-6.47438 0 -2.41417
36.0446 0 22.7427
-5.84162 0 4.62549
-13.699 0 15.2286
-16.4623 0 -1.75233
25.8304 0 12.6277
-27.4737 0 -23.2863
12.1145 0 -1.06578
94.7455 0 -64.9981
-27.8233 0 16.9554
13.5169 0 2.12635
27.7602 0 52.2362
164.142 0 -60.0211
-40.5517 0 -53.6199
21.7924 0 119.386
3.37005 0 12.8154
-9.71522 0 9.44097
0.827737 0 -0.87579
-1.04133 0 -0.619975
11.7572 0 7.63473
11.5539 0 8.05329
-13.2148 0 12.9151
-24.7017 0 -4.24358
4.6799 0 2.78454
13.435 0 -22.1809
9.61288 0 26.0505
7.28397 0 8.11947
12.5762 0 25.2811
-12.0486 0 12.7318
-10.7006 0 2.28945
-19.2397 0 3.8897
-53.1402 0 -93.4363
55.5834 0 6.58772
-10.9123 0 9.31199
-42.3118 0 33.9062
7.09522 0 73.1147
76.2834 0 -14.1352
39.9636 0 15.197
-15.6386 0 33.839
-8.6448 0 10.055
-16.093 0 -16.5926
-14.3163 0 48.5824
31.5352 0 27.4659
-80.0847 0 32.3395
40.8978 0 -39.0493
-16.882 0 -13.5034
-23.2133 0 52.9865
36.1356 0 -42.9646
-0.250768 0 5.92305
18.4549 0 10.3181
-25.7285 0 0.953461
-5.37843 0 -0.781689
-47.2213 0 -77.1459
78.5403 0 -6.615
-11.1172 0 -7.66685
-66.9416 0 -150.42
48.9652 0 71.9459
18.7271 0 -13.389
-58.7642 0 1.84573
-9.0909 0 22.6338
9.60923 0 2.72693
-8.85287 0 -19.8152
35.222 0 55.1507
15.7737 0 -3.41002
-30.5401 0 37.0103
44.8166 0 -58.1491
-22.0964 0 1.82457
8.79466 0 -7.32536
-6.10027 0 1.45903
-1.06124 0 -1.24538
11.7723 0 11.2364
-12.6785 0 -17.0522
2.7138 0 -9.03813
-22.287 0 -50.5641
41.045 0 43.7349
38.8221 0 52.7337
18.5229 0 -40.6961
-5.05672 0 2.40734
12.2073 0 -3.30947
6.29604 0 -0.282638
-45.8314 0 -28.0683
63.8174 0 16.0513
41.7834 0 -29.5947
-42.2028 0 -32.8921
17.3805 0 56.7432
24.94 0 -52.6385
3.52982 0 2.5969
-16.9235 0 -12.6986
69.8957 0 -75.5226
17.7074 0 -58.0193
-75.9292 0 45.2879
-11.8485 0 2.09408
-13.1099 0 1.5455
5.92783 0 -2.63165
-13.4523 0 4.8635
-8.88388 0 -15.4179
-26.1954 0 -66.6807
21.0964 0 7.65476
-16.3139 0 -14.3682
-148.92 0 53.7657
152.634 0 -113.556
13.2033 0 -7.47264
-139.195 0 21.5423
102.291 0 -82.9265
8.06703 0 2.04417
19.4283 0 -2.7055
-20.4587 0 8.45623
2.68113 0 10.4648
16.5859 0 -15.2176
3.83793 0 -86.6582
-7.15131 0 4.0867
-21.0263 0 19.4705
-22.8827 0 49.4218
-50.8478 0 14.2196
-25.4292 0 31.45
87.2248 0 85.2112
-16.4717 0 23.7074
1.08137 0 -1.64539
19.6537 0 -14.8148
-3.38379 0 -14.4636
1.5002 0 -21.2043
27.0871 0 -9.05282
6.61203 0 -12.0329
-28.8299 0 1.18151
1.15282 0 10.9294
-37.2188 0 -24.8058
59.0956 0 25.147
-49.8213 0 -8.73266
-6.67185 0 0.653649
3.23481 0 -1.68553
31.3905 0 14.8804
-17.7466 0 -0.234596
-60.6696 0 82.874
51.8835 0 -92.5433
3.34303 0 -27.1274
-37.712 0 32.1019
-33.9189 0 5.63389
11.0775 0 31.5305
-6.47365 0 -5.41213
4.41764 0 -19.0755
15.8166 0 -6.23191
16.3906 0 0.786602
-67.0118 0 12.6789
-0.708215 0 -13.988
3.13353 0 -49.1358
-40.0224 0 70.0371
-3.23979 0 -1.50724
8.28527 0 2.19802
-17.4604 0 -21.6414
28.04 0 6.22304
7.86258 0 3.73618
21.2009 0 22.3752
-19.9592 0 -76.1504
17.3416 0 58.6676
4.0459 0 -31.9931
-11.3097 0 -16.3778
-9.75432 0 11.9794
7.66015 0 -24.6804
-6.12973 0 -0.73479
13.579 0 3.15499
-68.0631 0 34.5094
-15.2776 0 -10.0305
-10.6056 0 3.9797
21.0602 0 30.9679
28.7516 0 20.4971
4.95067 0 8.45711
-8.13843 0 -107.934
-17.7362 0 -11.8018
16.7729 0 22.4874
-6.83422 0 102.707
13.9329 0 -14.9392
-2.13822 0 0.300038
18.8004 0 -11.5389
-34.8823 0 -58.7498
42.2538 0 -3.07212
-18.1452 0 8.86254
-10.5421 0 3.23303
3.1354 0 -7.36431
-18.3237 0 23.3829
3.46958 0 -22.0619
103.725 0 -34.0489
-71.9779 0 -52.0452
-17.0563 0 47.2734
-39.143 0 -9.63743
15.4066 0 -5.13845
7.7902 0 -10.662
-10.5386 0 4.19062
-4.09696 0 20.9717
-30.0891 0 -22.9494
43.0002 0 0.582926
10.1305 0 -15.4185
21.7131 0 2.15573
-13.1104 0 -15.2681
-10.9128 0 3.04911
9.45634 0 3.99068
-0.335397 0 7.48842
-83.3696 0 -57.1511
-14.2009 0 -3.94523
10.0343 0 -26.061
19.1689 0 -19.3323
0.189724 0 12.6371
-18.9064 0 10.962
15.0444 0 28.0017
-8.56924 0 24.1379
4.37519 0 7.63668
-16.1206 0 -7.89259
45.4546 0 -13.8883
23.8632 0 -3.93358
-58.3898 0 84.2796
-1.28503 0 8.12845
-2.87043 0 -26.4392
4.48315 0 -18.3767
53.5999 0 26.898
-33.7186 0 24.2008
27.3382 0 -33.7157
-27.8579 0 69.4438
-31.271 0 -66.2466
-33.6302 0 19.376
46.645 0 -10.5934
14.1883 0 -4.06823
-58.2073 0 55.9325
119.198 0 -13.2478
1.04319 0 14.7735
-11.3422 0 -22.9461
31.008 0 -19.7211
-10.8092 0 -10.3665
11.1178 0 117.432
-15.6751 0 13.7429
3.5234 0 7.69746
-13.4107 0 -5.80273
4.69776 0 -8.90012
-13.3208 0 13.902
-3.07212 0 -5.8412
10.4904 0 10.7078
16.6956 0 37.2029
4.59951 0 -12.5632
7.23316 0 16.2792
-17.6852 0 11.6734
-1.5254 0 -6.37077
-29.8973 0 -82.2771
-17.6414 0 24.3468
-2.94815 0 -26.4148
53.417 0 21.5956
-30.9554 0 36.2451
17.3187 0 1.7784
-18.9899 0 -28.1183
40.8837 0 13.6477
3.8916 0 -13.0075
-17.2173 0 0.799276
-8.93877 0 21.1932
-2.1258 0 -42.0625
0.316686 0 18.8602
-20.9534 0 3.763
3.76477 0 -18.2493
-22.873 0 -8.93089
61.1541 0 -33.7478
20.6697 0 -18.2345
86.342 0 70.1368
1.90207 0 11.0393
-4.76777 0 -57.5615
1.06946 0 37.3471
-99.2245 0 101.207
12.5468 0 -16.5082
120.991 0 -26.7737
-1.81511 0 -5.85475
17.139 0 6.95948
83.9149 0 -127.121
-32.4597 0 26.5131
10.6685 0 -44.0403
-7.58771 0 1.7729
-0.248498 0 2.71654
-14.3596 0 0.490131
-97.6938 0 8.17109
0.102064 0 -68.5152
-1.72297 0 19.4632
40.0101 0 49.6608
0.18339 0 -9.85885
1.38024 0 -38.701
17.622 0 21.9377
-26.7072 0 1.00389
10.0582 0 8.66547
22.8178 0 -10.5475
-3.39273 0 -10.9424
4.41464 0 -5.77353
2.00017 0 -6.09885
-2.80143 0 -19.5744
5.02432 0 5.91896
-4.85466 0 12.543
14.2291 0 -5.1366
7.89289 0 -15.1163
-30.4445 0 -3.13734
1.27445 0 10.7965
33.2897 0 8.43288
-2.7397 0 18.8994
34.3007 0 -56.8056
-4.58905 0 -2.742
4.0893 0 -50.3502
12.1678 0 -34.9564
9.19283 0 3.06253
4.22071 0 -48.3545
25.7928 0 73.5573
36.5648 0 7.99604
-9.99697 0 2.7859
41.2602 0 21.7173
-3.3643 0 19.7336
13.7776 0 -13.1172
2.16566 0 4.74933
20.7234 0 8.52472
-82.7575 0 -15.2242
5.73451 0 -11.7013
24.037 0 26.9816
6.88815 0 -9.12544
-14.4451 0 22.0857
7.13842 0 3.75728
6.30218 0 59.4271
3.11715 0 -16.5255
-0.603206 0 -9.26085
-7.99648 0 -8.89949
-54.0138 0 -55.3496
17.038 0 72.0749
-14.3688 0 -19.6187
-38.7052 0 1.98947
-3.41999 0 13.6855
2.3846 0 16.4157
-21.9978 0 -25.209
-6.7288 0 -10.3583
37.1925 0 12.3167
-35.0457 0 -14.4847
-3.58708 0 8.5747
11.4158 0 -4.18531
9.9425 0 15.2897
0.167098 0 11.1994
-47.4677 0 -18.4497
12.1328 0 -14.4552
-35.0025 0 -4.11253
15.2346 0 19.7836
10.2432 0 33.621
-9.98308 0 -11.8625
14.9079 0 -16.3031
-15.3497 0 -26.5584
-23.9629 0 -56.1394
22.1106 0 46.1405
-31.1269 0 25.0733
-27.1568 0 16.6074
4.34989 0 4.40848
26.6844 0 13.0362
-8.92873 0 -10.5752
-17.7274 0 -5.94121
8.35676 0 -0.74418
3.38685 0 -29.6637
-6.11167 0 21.501
16.1787 0 3.37696
-2.16854 0 -2.71053
-48.819 0 -5.57848
4.77638 0 45.7716
-28.1718 0 46.5331
29.5915 0 -72.8514
18.9237 0 8.28357
-35.2741 0 36.4089
-8.80089 0 1.70374
42.8141 0 -13.3931
-6.74366 0 -10.9648
6.64705 0 0.523268
4.32469 0 19.8162
24.6303 0 -10.4874
-1.72836 0 4.94822
-31.8192 0 -0.593047
6.85176 0 8.3268
-7.60182 0 1.29197
64.329 0 39.076
11.0353 0 -4.46655
-14.1396 0 12.0176
0.913817 0 -12.7821
2.78397 0 -18.0892
-53.4947 0 10.4418
-33.2647 0 25.8098
-11.612 0 29.3945
-1.44009 0 5.31369
-8.85255 0 -5.17828
65.6378 0 69.5954
-2.20145 0 -13.2132
9.08948 0 -32.0181
-74.6671 0 14.5864
-15.1495 0 -32.7215
-11.2938 0 0.773703
18.8787 0 48.7663
-10.642 0 7.00481
-108.391 0 -23.9692
115.969 0 6.94198
11.061 0 10.1243
-1.62817 0 7.16519
2.77374 0 -15.0744
24.88 0 84.2022
24.7897 0 -16.4107
4.61797 0 -66.4814
-12.7832 0 -9.90521
19.8602 0 -45.2794
-1.1097 0 4.64357
-21.8122 0 5.93771
46.587 0 28.331
2.74582 0 7.66335
-3.3334 0 6.51027
-6.90559 0 3.97262
0.656652 0 -1.0975
-8.06489 0 18.1227
-3.62056 0 10.7167
-10.1041 0 2.28056
16.4525 0 5.8012
17.0834 0 13.9875
14.8896 0 33.3393
-6.53545 0 13.6436
0.385975 0 -7.91639
-7.01863 0 -13.7747
12.0544 0 -11.5777
14.3539 0 -26.9419
23.7707 0 22.3585
18.6592 0 6.68235
-3.15958 0 41.581
-8.73738 0 -11.2788
-47.629 0 8.44854
21.8502 0 -23.1525
12.233 0 11.7139
15.6949 0 -61.5507
-3.50163 0 2.87408
-17.1766 0 7.14038
8.80241 0 -18.3359
17.989 0 -12.6677
-10.1082 0 -34.7451
-13.3238 0 -6.92609
8.80744 0 -13.0292
-113.457 0 14.9843
104.954 0 -5.73781
-15.3751 0 -1.18936
12.2446 0 -26.2828
14.3413 0 16.7855
-40.2504 0 40.4103
53.7368 0 -31.0099
-5.81924 0 0.876576
0.191167 0 -0.587595
4.14025 0 20.8086
-10.6815 0 4.29476
92.0508 0 -21.4329
-7.08524 0 -3.92832
41.7434 0 7.74552
-11.6606 0 2.49566
1.87685 0 14.8049
-32.4236 0 -51.2785
-10.7713 0 28.159
52.4188 0 39.5553
-18.7697 0 -12.0039
11.5187 0 -4.22838
14.1904 0 -34.4128
-26.0399 0 34.723
-62.432 0 -18.1667
62.6741 0 77.7116
-49.7906 0 16.5915
35.0576 0 13.6037
6.75023 0 -1.98778
7.52086 0 -4.25344
-1.06161 0 6.02681
29.435 0 36.1355
2.84564 0 -7.63471
-8.90862 0 -8.34797
-14.8118 0 -16.0047
26.2196 0 -8.16696
-11.5391 0 3.04508
-16.2711 0 -15.9144
-8.14863 0 14.2875
1.32579 0 4.88846
-2.56946 0 -1.72425
4.87936 0 -1.89928
-34.4687 0 -54.0006
-24.0428 0 10.7754
-40.05 0 -24.6401
11.6041 0 -12.1756
-23.9554 0 73.6252
25.8486 0 23.3057
-7.97009 0 -1.89363
7.41801 0 -44.5406
-39.6722 0 -50.9981
12.1679 0 21.3738
-22.3467 0 2.17358
4.08577 0 49.5299
-21.7391 0 -81.0119
-33.0693 0 -8.50413
-2.97512 0 -7.96621
13.9599 0 -12.5368
-5.85509 0 -5.5026
13.9841 0 14.1344
10.1485 0 24.3053
10.0918 0 6.44783
-104.787 0 13.4591
-9.85002 0 6.46036
7.21639 0 -9.92478
1.88882 0 19.7795
31.2517 0 -10.2277
28.6341 0 -37.645
-5.60933 0 -3.36102
1.23949 0 -2.96408
11.0565 0 -19.6414
-24.4753 0 25.549
-111.459 0 2.73828
-35.3098 0 67.8003
6.70126 0 -10.3089
47.3203 0 -10.3572
0.870193 0 7.62265
-6.91606 0 -14.4632
-3.3071 0 2.77826
-19.7353 0 -16.1547
68.6226 0 2.2968
-4.41289 0 8.57297
-4.04222 0 -12.1642
-5.07414 0 42.9553
-7.70274 0 24.0222
25.7469 0 -35.3933
3.17832 0 1.78893
-3.11761 0 2.8417
-62.6065 0 8.30394
-1.64593 0 -16.2036
3.31815 0 -9.23026
9.78917 0 -6.76085
3.86917 0 -16.9109
-7.99695 0 -6.27777
-6.027 0 4.55477
36.5589 0 -46.913
-11.6135 0 27.6525
-3.49526 0 20.1277
-4.43047 0 -14.8826
17.0333 0 2.63385
16.0821 0 14.18
-7.50943 0 -19.1413
3.43576 0 3.22125
32.0728 0 52.3333
-23.0147 0 5.4561
-6.69957 0 6.38749
2.49847 0 25.4853
29.9672 0 -0.429757
-11.1264 0 -12.6088
-18.8493 0 37.1029
-1.45384 0 -1.06641
12.3807 0 -15.6607
25.7477 0 67.4242
8.32993 0 4.61689
54.4037 0 -30.2287
-9.36384 0 -17.9878
27.4789 0 -0.801632
-6.28035 0 0.768613
2.50104 0 7.13297
6.27976 0 13.6263
-20.3568 0 -9.97883
18.8704 0 2.83919
-3.17275 0 5.30585
-5.5519 0 -5.89917
-15.7865 0 -13.3268
-24.4909 0 1.33007
-28.8154 0 -7.48336
-7.22986 0 -11.0878
-39.7499 0 -2.81168
-8.27814 0 18.0524
4.59365 0 10.5664
-4.61125 0 1.49606
11.3453 0 0.746801
41.8364 0 -62.1464
-31.4276 0 -37.3643
2.79288 0 10.8295
-10.5109 0 3.57719
4.65623 0 14.2047
-6.4437 0 10.5387
-50.194 0 -2.14325
-12.9919 0 7.54774
75.7654 0 51.727
22.3742 0 0.879461
-0.177945 0 6.40995
-21.4565 0 12.3065
-0.687424 0 -2.07977
-1.36994 0 -7.68482
7.60424 0 -2.23892
2.84721 0 -2.47348
25.3049 0 -7.45792
-10.4626 0 -4.46808
-15.4623 0 -12.4865
-20.6261 0 5.44231
37.7995 0 32.4637
-74.9725 0 21.701
51.2424 0 0.0665309
-1.10629 0 2.08559
-22.8028 0 -3.59136
-9.16719 0 13.6467
10.8106 0 -62.2662
7.87121 0 -28.6722
-52.5399 0 6.1369
5.65635 0 7.51775
47.7226 0 -96.7597
21.9165 0 -102.852
0.562051 0 13.5738
-29.4667 0 16.4414
26.2501 0 -24.2293
17.6391 0 -67.834
13.0636 0 -9.97942
-21.9473 0 -16.7102
16.0225 0 42.3369
-28.1481 0 0.927727
-20.3615 0 26.6508
14.2949 0 -44.5509
-5.87746 0 -8.08583
-29.0477 0 -23.5075
5.1141 0 25.8219
4.78126 0 6.5409
17.623 0 4.94017
-42.3622 0 22.7374
1.92123 0 1.46983
-20.9887 0 -53.8364
113.986 0 -15.1665
-1.18374 0 -25.7401
-3.16157 0 -7.12132
-6.64805 0 19.9447
13.378 0 -8.80279
33.6018 0 22.7023
17.0903 0 -2.32114
-8.81206 0 -15.0048
-61.5198 0 -19.2211
-41.7514 0 -7.17979
87.174 0 -64.1078
31.8474 0 49.9057
-38.5113 0 34.4749
-2.31688 0 -8.83989
27.5546 0 -18.8038
25.7819 0 4.67711
-9.84217 0 -1.54404
-76.1668 0 -32.2616
-3.30454 0 -0.368175
8.06404 0 -3.40206
6.46297 0 10.4063
-8.9085 0 21.3664
4.94036 0 -17.7412
-37.4607 0 1.38952
3.72493 0 -3.25157
19.8269 0 22.3611
-7.40657 0 -19.7297
38.9858 0 -6.28389