# vtk DataFile Version 3.0
SiWiRVisFile
ASCII
DATASET UNSTRUCTURED_GRID
POINTS 1600 DOUBLE
76.9343 100 72.8053
77.4171 100 73.8759
78.3146 100 74.4824
80.3152 100 74.4541
81.2819 100 74.7878
82.234 100 75.3153
84.1447 100 74.9117
85.1647 100 75.3092
86.4223 100 75.7595
85.0926 100 74.1404
91.0211 100 73.839
91.5611 100 72.6945
89.6861 100 73.9057
89.3343 100 72.4043
88.9448 100 71.3631
91.848 100 64.7399
92.9029 100 65.7308
94.7775 100 63.868
92.1889 100 60.34
96.6569 100 62.5442
104.124 100 47.474
105.219 100 49.8823
105.531 100 48.7598
106.751 100 48.6592
105.199 100 47.6902
108.644 100 48.7017
109.872 100 43.4655
110.945 100 43.2745
110.648 100 44.2876
111.702 100 44.247
112.782 100 44.2266
113.86 100 44.3005
113.541 100 43.2512
114.61 100 43.4318
115.909 100 48.7152
119.293 100 47.691
117.741 100 48.6586
118.961 100 48.7608
119.274 100 49.8828
120.368 100 47.4728
127.862 100 62.5484
132.303 100 60.34
129.535 100 63.8612
131.558 100 65.706
132.639 100 64.8069
135.554 100 71.383
135.177 100 72.4356
134.818 100 73.8947
132.93 100 72.6894
133.473 100 73.8258
139.4 100 74.1395
138.069 100 75.7594
139.326 100 75.3103
140.347 100 74.9115
142.258 100 75.3151
143.21 100 74.7874
144.177 100 74.4545
146.178 100 74.4826
147.075 100 73.876
147.558 100 72.8054
76.3808 100 74.3897
77.3474 100 75.0506
79.2983 100 74.9495
80.3139 100 75.5134
81.3759 100 75.9406
83.3364 100 75.6953
84.3246 100 76.0491
85.3471 100 76.4289
86.3818 100 76.8417
87.4878 100 77.0423
88.7421 100 77.2388
92.6884 100 72.4406
90.3102 100 72.9411
91.1749 100 70.4885
92.7934 100 67.2766
90.3508 100 71.8807
93.6077 100 64.9492
96.0465 100 63.3707
97.1481 100 63.532
98.6476 100 63.3824
104.379 100 48.685
98.6841 100 54.544
105.675 100 55.9402
110.479 100 47.0609
106.291 100 47.6742
108.696 100 49.8232
109.406 100 47.9159
109.456 100 46.7228
108.528 100 43.5057
111.633 100 45.4474
112.837 100 45.44
115.975 100 43.5101
115.023 100 46.7171
115.101 100 47.9293
115.786 100 49.8347
118.201 100 47.6738
114.035 100 47.1052
118.46 100 55.8446
125.808 100 54.544
120.113 100 48.6855
125.884 100 63.3593
127.408 100 63.5689
128.536 100 63.3015
130.912 100 64.9014
134.121 100 71.844
131.786 100 67.2339
133.351 100 70.4962
134.196 100 72.9558
131.79 100 72.431
135.756 100 77.2252
137.005 100 77.0361
138.113 100 76.8394
139.146 100 76.429
140.167 100 76.0501
141.155 100 75.6943
143.116 100 75.9403
144.178 100 75.5134
145.194 100 74.9494
147.145 100 75.0506
148.112 100 74.3897
76.4284 100 75.6322
77.3855 100 76.172
78.3461 100 75.5437
79.3706 100 76.1176
80.3901 100 76.6572
82.3328 100 76.4744
83.4385 100 76.8768
84.4909 100 77.264
85.5797 100 77.5735
86.5967 100 77.9129
87.8668 100 78.0561
88.8761 100 78.2764
91.0242 100 76.9328
91.6412 100 71.4841
92.8263 100 69.1212
93.4172 100 68.1817
93.9623 100 66.002
94.7084 100 64.9659
96.0629 100 64.4494
97.802 100 62.5954
98.9609 100 62.0271
103.696 100 57.6286
105.65 100 57.0578
106.79 100 56.9545
104.791 100 53.3489
107.013 100 55.8318
106.967 100 54.6726
105.605 100 54.79
110.458 100 45.9328
111.521 100 46.6614
113.01 100 46.6455
113.977 100 45.9558
118.801 100 54.4158
117.451 100 54.7147
117.468 100 55.7961
119.703 100 53.6292
117.806 100 56.8976
118.901 100 57.0348
120.84 100 57.806
125.536 100 62.0663
126.716 100 62.493
128.462 100 64.3796
129.761 100 65.0412
130.519 100 65.9554
131.014 100 68.1641
131.75 100 69.034
132.851 100 71.4682
133.549 100 76.9122
135.617 100 78.2632
136.631 100 78.0623
137.893 100 77.9104
138.913 100 77.5751
140.001 100 77.2601
141.054 100 76.8769
142.159 100 76.4745
144.102 100 76.6575
145.122 100 76.1177
146.147 100 75.544
147.107 100 76.1723
148.064 100 75.6323
76.3313 100 76.8239
77.4925 100 77.2508
78.4061 100 76.6805
79.4379 100 77.2871
81.4008 100 77.1352
82.5421 100 77.5574
83.5539 100 78.0419
84.7779 100 78.4318
85.9015 100 78.8555
87.0342 100 78.9428
88.5921 100 79.2946
89.8862 100 78.9343
89.9241 100 77.6987
92.8512 100 71.1968
92.2312 100 70.1569
93.9515 100 69.264
94.4501 100 68.2438
93.8441 100 67.069
95.1282 100 66.1451
96.0396 100 65.589
97.126 100 64.8645
99.9392 100 63.553
104.17 100 56.6369
105.174 100 59.7631
105.213 100 58.5487
106.388 100 58.0139
109.098 100 57.5861
110.135 100 57.8378
108.145 100 55.6024
111.309 100 47.8772
113.161 100 47.8795
116.415 100 55.5609
114.394 100 57.698
115.612 100 57.871
118.291 100 58.1524
119.397 100 58.0887
119.229 100 59.5367
120.179 100 56.8451
124.602 100 63.5386
127.435 100 64.8672
128.495 100 65.5037
129.314 100 66.2336
130.639 100 67.0379
129.908 100 68.295
130.589 100 69.0781
132.268 100 70.1792
131.659 100 71.2015
134.549 100 77.7164
134.623 100 78.945
135.896 100 79.2799
137.452 100 78.9337
138.595 100 78.8563
139.719 100 78.4242
140.939 100 78.0378
141.95 100 77.5577
143.091 100 77.135
145.055 100 77.2875
146.086 100 76.6809
147 100 77.251
148.161 100 76.824
76.4877 100 78.0275
77.4453 100 78.4033
78.4232 100 77.7469
80.4196 100 77.7552
81.695 100 78.2607
82.6457 100 78.7907
83.7216 100 79.0558
84.8593 100 79.475
86.5244 100 79.8366
87.6759 100 79.8783
88.3605 100 80.6814
91.0012 100 79.3706
91.4548 100 77.9557
94.5538 100 70.6045
93.4251 100 70.2962
96.2651 100 69.383
95.6938 100 68.2868
95.9066 100 67.0083
96.846 100 66.2619
98.2017 100 65.7592
97.9644 100 64.2078
102.882 100 63.5003
106.46 100 59.1651
107.453 100 58.7507
107.775 100 57.7778
108.522 100 58.9321
109.542 100 58.7026
110.376 100 59.6027
107.941 100 56.7272
111.381 100 49.7938
113.104 100 49.7674
116.667 100 56.674
113.827 100 59.2847
114.719 100 58.7531
115.839 100 58.9729
116.636 100 57.7506
117.03 100 58.7375
118.111 100 59.3732
121.758 100 63.4537
126.516 100 64.2733
126.249 100 65.7596
127.657 100 66.1728
128.495 100 67.0361
128.639 100 68.2216
128.418 100 69.2422
131.062 100 70.3067
129.959 100 70.7535
133.072 100 78.084
133.493 100 79.3081
136.14 100 80.6972
136.811 100 79.8814
137.974 100 79.8223
139.642 100 79.4709
140.776 100 79.0544
141.848 100 78.7899
142.797 100 78.2607
144.073 100 77.7554
146.069 100 77.7474
147.048 100 78.4032
148.005 100 78.0272
76.5986 100 79.2058
77.6891 100 79.5678
78.549 100 78.8936
79.5474 100 78.4715
80.6556 100 79.0199
81.8482 100 79.4781
82.8396 100 80.0086
83.8805 100 80.1951
85.1582 100 80.6011
86.2077 100 80.8427
87.2474 100 81.0015
89.3991 100 79.9804
91.5829 100 80.3291
91.1766 100 75.8081
92.424 100 75.2342
95.0475 100 69.3114
96.9432 100 70.3286
97.0935 100 68.4707
96.9815 100 67.33
99.0685 100 66.5399
98.8516 100 64.7364
101.051 100 64.5583
103.837 100 62.2206
104.996 100 62.4807
106.12 100 60.3575
107.512 100 59.8642
108.112 100 60.7605
109.194 100 59.8204
111.65 100 59.777
111.319 100 57.7476
113.272 100 57.6688
112.768 100 59.9535
114.878 100 59.916
116.273 100 60.9302
117.019 100 59.8516
119.069 100 60.8428
119.723 100 62.4814
120.798 100 62.4319
123.448 100 64.5247
125.616 100 64.8296
125.431 100 66.5798
127.541 100 67.6785
127.089 100 68.8693
127.467 100 69.9441
129.62 100 69.6422
132.049 100 75.2173
133.276 100 75.7968
132.955 100 80.3264
135.122 100 80.0084
137.252 100 80.9956
138.297 100 80.8217
139.342 100 80.5996
140.619 100 80.1877
141.668 100 80.0074
142.645 100 79.4781
143.838 100 79.0201
144.945 100 78.4726
145.943 100 78.8936
146.804 100 79.5664
147.894 100 79.2052
75.6076 100 80.0689
76.8109 100 80.2606
78.7079 100 79.9803
79.7423 100 79.4938
80.8568 100 80.0575
81.2163 100 81.7574
83.1603 100 81.0726
84.3314 100 81.3367
85.4721 100 81.7037
86.6183 100 81.8997
87.7251 100 82.0083
90.3707 100 80.3892
91.7351 100 81.5379
92.2176 100 76.502
95.5446 100 71.6
95.7104 100 70.3174
97.8369 100 70.965
98.6266 100 68.9154
98.0999 100 67.698
99.762 100 65.7217
99.9909 100 64.6504
102.201 100 64.5021
104.405 100 63.471
106.834 100 61.2261
108.723 100 61.7178
109.46 100 60.9679
109.71 100 63.777
110.846 100 60.6236
109.062 100 64.8441
110.286 100 65.7945
114.12 100 64.4482
115.386 100 64.1262
113.936 100 60.4076
114.626 100 63.3442
115.037 100 61.0376
115.906 100 61.8917
117.609 100 61.0366
120.005 100 63.5285
122.238 100 64.4571
124.527 100 64.6442
124.796 100 65.7202
126.373 100 67.6727
126.081 100 69.0234
126.983 100 70.9079
128.621 100 70.2933
128.941 100 71.4442
132.209 100 76.4378
132.583 100 81.4963
134.14 100 80.3722
136.766 100 82.0036
137.876 100 81.8858
139.02 100 81.7072
140.162 100 81.3416
141.331 100 81.0877
143.275 100 81.7599
143.636 100 80.057
144.75 100 79.4977
145.786 100 79.9806
147.682 100 80.2607
148.885 100 80.0691
75.9813 100 81.0816
77.1619 100 81.4287
78.0755 100 80.8293
79.0354 100 81.7738
79.6875 100 80.6967
80.0785 100 81.9527
82.2319 100 81.7781
83.4018 100 82.1515
84.5811 100 82.444
85.7073 100 82.7721
86.9875 100 82.928
88.0982 100 83.0141
89.6639 100 81.3832
88.9591 100 82.2529
89.68 100 83.0637
92.8573 100 80.5457
96.8701 100 71.5173
98.4416 100 70.1622
99.8863 100 68.7613
99.193 100 67.8448
100.482 100 66.5295
101.11 100 65.7036
103.706 100 64.5003
106.131 100 62.4297
107.52 100 62.1272
109.305 100 62.6544
108.218 100 62.9351
106.957 100 65.6398
108.028 100 65.299
110.289 100 66.8016
114.671 100 66.7762
116.22 100 65.1439
117.335 100 65.725
115.577 100 62.9875
114.693 100 62.2653
117.063 100 62.1427
118.443 100 62.0675
120.804 100 64.437
123.357 100 65.6648
124.003 100 66.5037
125.26 100 67.7484
125.086 100 68.8064
126.153 100 70.2018
127.737 100 71.7097
131.488 100 80.5828
134.781 100 83.0405
135.529 100 82.2475
134.836 100 81.3761
136.399 100 83.0154
137.518 100 82.9165
138.771 100 82.7773
139.893 100 82.4503
141.11 100 82.1558
142.266 100 81.7699
144.417 100 81.9487
144.801 100 80.6988
145.458 100 81.7746
146.409 100 80.8356
147.329 100 81.426
148.511 100 81.0815
75.6982 100 82.2224
76.9292 100 82.5368
78.0067 100 82.1943
79.1979 100 83.0239
80.0858 100 83.9503
79.5548 100 85.0393
80.8829 100 82.796
82.3618 100 83.0941
83.4833 100 83.3626
82.9328 100 84.2349
84.5904 100 83.5986
86.184 100 84.2352
87.2896 100 84.0275
88.8279 100 83.8746
90.8845 100 83.2532
92.0235 100 79.2543
97.2513 100 73.2168
97.8856 100 72.0731
99.436 100 69.9395
100.434 100 69.6877
102.168 100 66.4544
[...]
POINT_DATA 1600
SCALARS mass double
LOOKUP_TABLE default
1
1
1
1
1
1
1
1
1
1
1
1
1
1
1
1
1
1
1
1
1
1
1
1
1
1
1
1
1
1
1
1
1
1
1
1
1
1
1
1
1
1
1
1
1
1
1
1
1
1
1
1
1
1
1
1
1
1
1
1
1
1
1
1
1
1
1
1
1
1
1
1
1
1
1
1
1
1
1
1
1
1
1
1
1
1
1
1
1
1
1
1
1
1
1
1
1
1
1
1
1
1
1
1
1
1
1
1
1
1
1
1
1
1
1
1
1
1
1
1
1
1
1
1
1
1
1
1
1
1
1
1
1
1
1
1
1
1
1
1
1
1
1
1
1
1
1
1
1
1
1
1
1
1
1
1
1
1
1
1
1
1
1
1
1
1
1
1
1
1
1
1
1
1
1
1
1
1
1
1
1
1
1
1
1
1
1
1
1
1
1
1
1
1
1
1
1
1
1
1
1
1
1
1
1
1
1
1
1
1
1
1
1
1
1
1
1
1
1
1
1
1
1
1
1
1
1
1
1
1
1
1
1
1
1
1
1
1
1
1
1
1
1
1
1
1
1
1
1
1
1
1
1
1
1
1
1
1
1
1
1
1
1
1
1
1
1
1
1
1
1
1
1
1
1
1
1
1
1
1
1
1
1
1
1
1
1
1
1
1
1
1
1
1
1
1
1
1
1
1
1
1
1
1
1
1
1
1
1
1
1
1
1
1
1
1
1
1
1
1
1
1
1
1
1
1
1
1
1
1
1
1
1
1
1
1
1
1
1
1
1
1
1
1
1
1
1
1
1
1
1
1
1
1
1
1
1
1
1
1
1
1
1
1
1
1
1
1
1
1
1
1
1
1
1
1
1
1
1
1
1
1
1
1
1
1
1
1
1
1
1
1
1
1
1
1
1
1
1
1
1
1
1
1
1
1
1
1
1
1
1
1
1
1
1
1
1
1
1
1
1
1
1
1
1
1
1
1
1
1
1
1
1
1
1
1
1
1
1
1
1
1
1
1
1
1
1
1
1
1
1
1
1
1
1
1
1
1
1
1
1
1
1
1
1
1
1
1
1
1
1
1
1
1
1
1
1
1
1
1
1
1
1
1
1
1
1
1
1
1
1
1
1
1
1
1
1
1
1
1
1
1
1
1
1
1
1
1
1
1
1
1
1
1
1
1
1
1
1
1
1
1
1
1
1
1
1
1
1
1
1
1
1
1
1
1
1
1
1
1
1
1
1
1
1
1
1
1
1
1
1
1
1
1
1
1
1
1
1
1
1
1
1
1
1
1
1
1
1
1
1
1
1
1
1
1
1
1
1
1
1
1
1
1
1
1
1
1
1
1
1
1
1
1
1
1
1
1
1
1
1
1
1
1
1
1
1
1
1
1
1
1
1
1
1
1
1
1
1
1
1
1
1
1
1
1
1
1
1
1
1
1
1
1
1
1
1
1
1
1
1
1
1
1
1
1
1
1
1
1
1
1
1
1
1
1
1
1
1
1
1
1
1
1
1
1
1
1
1
1
1
1
1
1
1
1
1
1
1
1
1
1
1
1
1
1
1
1
1
1
1
1
1
1
1
1
1
1
1
1
1
1
1
1
1
1
1
1
1
1
1
1
1
1
1
1
1
1
1
1
1
1
1
1
1
1
1
1
1
1
1
1
1
1
1
1
1
1
1
1
1
1
1
1
1
1
1
1
1
1
1
1
1
1
1
1
1
1
1
1
1
1
1
1
1
1
1
1
1
1
1
1
1
1
1
1
1
1
1
1
1
1
1
1
1
1
1
1
1
1
1
1
1
1
1
1
1
1
1
1
1
1
1
1
1
1
1
1
1
1
1
1
1
1
1
1
1
1
1
1
1
1
1
1
1
1
1
1
1
1
1
1
1
1
1
1
1
1
1
1
1
1
1
1
1
1
1
1
1
1
1
1
1
1
1
1
1
1
1
1
1
1
1
1
1
1
1
1
1
1
1
1
1
1
1
1
1
1
1
1
1
1
1
1
1
1
1
1
1
1
1
1
1
1
1
1
1
1
1
1
1
1
1
1
1
1
1
1
1
1
1
1
1
1
1
1
1
1
1
1
1
1
1
1
1
1
1
1
1
1
1
1
1
1
1
1
1
1
1
1
1
1
1
1
1
1
1
1
1
1
1
1
1
1
1
1
1
1
1
1
1
1
1
1
1
1
1
1
1
1
1
1
1
1
1
1
1
1
1
1
1
1
1
1
1
1
1
1
1
1
1
1
1
1
1
1
1
1
1
1
1
1
1
1
1
1
1
1
1
1
1
1
1
1
1
1
1
1
1
1
1
1
1
1
1
1
1
1
1
1
1
1
1
1
1
1
1
1
1
1
1
1
1
1
1
1
1
1
1
1
1
1
1
1
1
1
1
1
1
1
1
1
1
1
1
1
1
1
1
1
1
1
1
1
1
1
1
1
1
1
1
1
1
1
1
1
1
1
1
1
1
1
1
1
1
1
1
1
1
1
1
1
1
1
1
1
1
1
1
1
1
1
1
1
1
1
1
1
1
1
1
1
1
1
1
1
1
1
1
1
1
1
1
1
1
1
1
1
1
1
1
1
1
1
1
1
1
1
1
1
1
1
1
1
1
1
1
1
1
1
1
1
1
1
1
1
1
1
1
1
1
1
1
1
1
1
1
1
1
1
1
1
1
1
1
1
1
1
1
1
1
1
1
1
1
1
1
1
1
1
1
1
1
1
1
1
1
1
1
1
1
1
1
1
1
1
1
1
1
1
1
1
1
1
1
1
1
1
1
1
1
1
1
1
1
1
1
1
1
1
1
1
1
1
1
1
1
1
1
1
1
1
1
1
1
1
1
1
1
1
1
1
1
1
1
1
1
1
1
1
1
1
1
1
1
1
1
1
1
1
1
1
1
1
1
1
1
1
1
1
1
1
1
1
1
1
1
1
1
1
1
1
1
1
1
1
1
1
1
1
1
1
1
1
1
1
1
1
1
1
1
1
1
1
1
1
1
1
1
1
1
1
1
1
1
1
1
1
1
1
1
1
1
1
1
1
1
1
1
1
1
1
1
1
1
1
1
1
1
1
1
1
1
1
1
1
1
1
1
1
1
1
1
1
1
1
1
1
1
1
1
1
1
1
1
1
1
1
1
1
1
1
1
1
1
1
1
1
1
1
1
1
1
1
1
1
1
1
1
1
1
1
1
1
1
1
1
1
1
1
1
1
1
1
1
1
1
1
1
1
1
1
1
1
1
1
1
1
1
1
1
1
1
1
1
1
1
1
1
1
1
1
1
1
1
1
1
1
1
1
1
1
1
1
1
1
1
1
1
1
1
1
1
1
1
1
1
1
1
1
1
1
1
1
1
1
1
1
1
1
1
1
1
1
1
1
1
1
1
1
1
1
1
1
1
1
1
1
1
1
1
1
1
1
1
1
1
1
1
1
1
1
1
1
1
1
1
1
1
1
1
1
1
1
1
1
1
1
1
1
1
1
1
1
1
1
1
1
1
1
1
1
1
1
1
1
1
1
1
1
1
1
1
1
1
1
1
1
1
1
1
1
1
1
1
1
1
1
1
1
1
1
1
1
1
1
1
1
1
1
1
1
1
1
1
1
1
1
1
1
VECTORS force double
3.23922 0 11.9474
-23.6558 0 -2.48859
0.327224 0 -25.4704
-74.8706 0 -53.9726
51.5872 0 34.6808
45.3258 0 0.848563
-0.634956 0 -1.97979
18.6821 0 3.09971
-18.9029 0 -10.3288
-8.63679 0 18.0779
-7.78268 0 -14.1882
-14.788 0 -4.84701
12.9949 0 -10.872
5.33292 0 4.73585
4.95587 0 -0.783657
7.35996 0 5.18385
-39.1671 0 29.0889
14.4731 0 -4.36026
0 0 0
44.4242 0 -59.5716
-5.28689 0 10.7528
-0.717816 0 -14.7417
8.15787 0 -2.27739
-6.66234 0 13.7447
-8.40756 0 11.5388
-8.19712 0 6.85629
-20.2737 0 4.43393
30.6868 0 -27.1347
-45.5303 0 42.0838
13.5549 0 3.12134
6.14493 0 2.82925
20.6219 0 12.9027
-26.4162 0 -1.57241
20.621 0 7.85867
0.257611 0 -0.48556
8.97756 0 11.4889
6.347 0 13.8103
-8.15127 0 -2.24612
0.730227 0 -14.7085
5.21348 0 10.7633
-70.8778 0 -72.8364
0 0 0
-11.8672 0 15.641
68.352 0 45.3351
-8.90426 0 5.48363
-5.67108 0 0.901318
-9.18038 0 -0.248181
-9.75815 0 -7.45809
12.6149 0 -5.54998
5.67505 0 -11.9422
8.59102 0 18.2881
18.7646 0 -11.5608
-18.3103 0 2.60879
0.284586 0 -1.76602
-45.5265 0 0.869311
-50.9122 0 34.3854
74.2968 0 -53.9881
-0.414776 0 -25.4387
23.7233 0 -2.53546
-3.23623 0 11.9444
17.0106 0 12.2305
3.87156 0 -21.2899
20.7753 0 19.304
7.96307 0 31.9751
-49.2781 0 22.754
-54.5326 0 1.52295
20.1428 0 25.0339
11.1414 0 10.8719
9.65967 0 -2.20017
-5.84558 0 -5.64907
-14.631 0 -34.0876
-11.9872 0 -16.1284
13.1187 0 38.54
-7.81939 0 -1.79558
-25.1151 0 -6.40297
8.5418 0 -32.4418
19.5683 0 -34.4495
-50.9944 0 41.9869
-16.8925 0 -2.99802
19.0019 0 -18.735
16.134 0 -14.896
0 0 0
12.8757 0 -4.29235
15.5198 0 16.0043
-1.57143 0 -3.8941
-0.0521542 0 -1.02189
16.257 0 -23.6908
-8.86031 0 -1.84232
10.6026 0 -0.185442
-0.689096 0 0.556392
0.747437 0 0.514358
-9.88816 0 -0.418378
20.2191 0 -6.10905
-8.90175 0 -16.4648
0.145523 0 -2.00663
1.09869 0 -3.98693
-29.1069 0 16.6277
131.589 0 18.8419
0 0 0
-16.1636 0 -14.881
-4.3651 0 -11.2851
1.10972 0 9.87956
62.5761 0 61.5908
-47.3829 0 -48.058
-3.15374 0 -0.759966
-18.1169 0 3.60057
3.77691 0 -5.28665
-15.6716 0 3.39551
13.4846 0 -15.6998
15.7299 0 -32.4021
4.16458 0 -0.79913
-10.4927 0 0.242756
-11.111 0 11.0336
-18.7691 0 24.2981
53.9373 0 1.82241
49.4988 0 22.7488
-8.07658 0 32.2593
-20.7504 0 19.3909
-3.85753 0 -21.2083
-17.0093 0 12.2286
-17.4296 0 2.4353
6.47801 0 -6.24285
5.95424 0 45.0782
-1.55434 0 -1.37966
-2.03201 0 -22.4551
20.2076 0 -9.669
-1.32989 0 -11.872
2.2962 0 -0.258603
-40.7916 0 10.3068
37.1506 0 18.3945
-63.1408 0 10.358
92.3629 0 27.9553
1.69747 0 -4.67648
13.1256 0 18.7615
2.11965 0 21.4042
-42.572 0 1.19243
29.5108 0 -22.2695
16.5851 0 29.5716
-2.22087 0 19.8466
6.75011 0 8.05271
-11.8521 0 15.3945
-1.08551 0 8.33202
7.38245 0 12.4438
9.7407 0 0.272458
1.56696 0 2.77598
0.786129 0 5.59974
-5.59052 0 13.9408
9.81614 0 5.03912
12.2137 0 7.98751
-1.3494 0 -8.10479
1.69715 0 -6.52351
-10.7473 0 11.2394
-2.77567 0 1.9478
3.94865 0 -7.6125
-121.487 0 29.2686
-8.2164 0 7.16385
-11.8338 0 -4.67326
10.1176 0 5.38593
-11.9449 0 -5.72227
13.2266 0 16.2282
-6.59132 0 16.6246
1.3726 0 12.5347
-7.26681 0 8.17149
-44.4776 0 -11.3168
51.7769 0 -107.621
-10.2132 0 12.8669
-14.2922 0 20.4483
-3.86531 0 10.6493
-91.9072 0 22.7787
62.8962 0 6.04383
-35.16 0 16.6858
39.2529 0 10.01
-2.37538 0 -0.147996
1.51838 0 -12.4584
-20.3113 0 -9.60798
2.07598 0 -22.5299
1.72106 0 -1.29288
-6.04985 0 45.0552
-6.46473 0 -6.36165
17.4355 0 2.45789
26.1195 0 -1.25523
-67.3914 0 17.5487
20.524 0 -38.1006
-15.9026 0 -13.2886
10.8591 0 2.55628
-1.73619 0 8.96722
-0.132066 0 -74.4961
-10.155 0 -57.1908
-10.0506 0 -7.81754
43.8273 0 -63.7078
-21.7041 0 2.28064
-8.78441 0 -1.51975
-8.39771 0 9.35813
-33.5799 0 25.4306
25.8664 0 6.1801
-16.0836 0 -1.3184
69.7905 0 7.46457
24.8157 0 31.7454
-31.7188 0 8.80513
-6.24558 0 -46.3778
-29.5121 0 22.8196
-11.3328 0 -3.86518
11.6651 0 -7.26069
7.22564 0 -16.0624
18.1607 0 5.17711
2.19932 0 4.883
-41.0105 0 7.9681
59.5859 0 -27.0048
-13.0973 0 4.35128
-3.49981 0 -17.6062
4.52975 0 -17.774
-7.95367 0 -4.57731
10.8326 0 -0.531632
-78.6943 0 14.0591
-13.6425 0 -2.58434
7.95924 0 -7.2151
-4.89066 0 1.29614
-11.3469 0 13.8394
11.6267 0 -1.21958
18.5731 0 11.6832
10.4313 0 -27.1684
19.8094 0 -1.55192
6.40994 0 24.9589
-51.0951 0 -39.4031
4.61255 0 145.896
-18.1128 0 6.84036
29.7418 0 21.7116
6.95957 0 8.4459
9.94668 0 0.255958
22.036 0 6.6757
-42.769 0 -57.8904
8.98514 0 -10.0955
9.72095 0 -53.3628
-1.15959 0 -70.9427
2.20754 0 8.55624
-10.7167 0 2.67762
16.1022 0 -13.3485
-20.656 0 -38.1334
67.4597 0 17.5766
-26.119 0 -1.2598
-51.7268 0 -32.8862
78.52 0 32.8064
32.0338 0 62.6453
27.6239 0 26.1778
-34.7509 0 4.86693
45.4259 0 -26.4017
29.0963 0 80.4547
-2.48289 0 51.4737
-20.4351 0 25.4178
-47.7101 0 -13.4431
30.8127 0 26.1992
-83.1235 0 7.00236
5.96633 0 16.3504
6.74793 0 -13.5274
10.9383 0 -38.2103
2.70571 0 -25.7082
-0.826964 0 7.98611
1.07534 0 -7.46396
27.2106 0 3.67887
2.98204 0 -10.0441
-21.2087 0 -9.66109
8.72913 0 15.5698
-26.3212 0 18.2082
-27.3977 0 49.253
16.2688 0 -39.148
-40.8458 0 4.35182
22.3762 0 32.1872
-10.0934 0 -5.10124
-7.19207 0 -34.7317
2.40843 0 -1.24287
-2.41312 0 -1.2994
13.2133 0 -27.3414
-45.4684 0 36.9983
61.2287 0 -19.6261
7.10732 0 2.00094
56.2149 0 -13.6579
15.6848 0 28.1753
-15.5613 0 -11.1407
-15.4009 0 -1.69636
24.9173 0 -19.7525
-0.660196 0 -1.66325
-16.0885 0 15.3599
-6.49977 0 -1.74129
9.15094 0 -58.6683
-19.1739 0 27.9385
-13.7677 0 -32.6948
-7.21352 0 -9.15781
0.0783948 0 9.76941
55.2322 0 3.25799
-30.5825 0 27.0552
45.3056 0 -17.3208
15.7092 0 20.8004
2.49974 0 48.5182
-29.3607 0 76.7306
-45.1555 0 -26.5389
35.644 0 4.46864
-27.8673 0 26.2427
-32.0871 0 62.4541
-78.6357 0 32.8076
51.8235 0 -32.951
0.446942 0 -26.4574
-20.2547 0 0.4894
-9.40657 0 -17.347
6.22509 0 -67.7491
60.0293 0 -85.526
-45.041 0 12.4096
-30.2934 0 -28.9799
54.1632 0 8.80336
-22.0873 0 -15.4549
-31.0291 0 37.7498
49.6125 0 -22.9375
-15.5744 0 12.2025
4.82719 0 6.36707
17.47 0 5.61682
-11.1576 0 14.8864
23.0611 0 -1.03213
-19.7072 0 -2.35886
-4.1633 0 -3.02713
9.77545 0 29.5593
-15.9847 0 25.1808
57.9492 0 38.0689
30.0986 0 1.20344
12.3802 0 14.6626
-6.05573 0 9.4239
11.9959 0 -12.5022
-18.8776 0 -19.9848
15.3624 0 22.6838
9.72522 0 6.19399
-14.8735 0 4.02293
-10.6279 0 2.47548
1.1672 0 3.8969
18.6644 0 -2.73617
25.3161 0 -32.383
29.4909 0 -65.6087
2.94026 0 12.5678
-9.94409 0 -1.27878
-43.6705 0 -10.1866
19.8508 0 14.0184
-21.3322 0 1.12695
-31.0188 0 21.9679
16.581 0 28.0635
3.48021 0 9.03484
89.7452 0 -21.7338
14.5466 0 -21.3465
-13.9011 0 1.18738
11.172 0 15.5541
-17.1943 0 7.19587
-0.254738 0 -2.27232
25.4863 0 9.19936
-44.6451 0 -25.2502
19.553 0 47.0147
28.1381 0 -15.7902
-47.1916 0 10.7816
19.7096 0 -19.8618
48.5968 0 10.5418
-59.724 0 -86.0828
-6.93475 0 -64.7101
9.50932 0 -17.2665
20.2064 0 0.35345
-0.376267 0 -26.0077
14.7547 0 -22.3647
-1.19283 0 39.1986
42.8511 0 -11.4013
-53.6028 0 94.8521
-6.82913 0 32.64
-91.0107 0 -13.4787
6.74414 0 2.81437
-16.0727 0 3.79316
-9.30214 0 -15.175
-29.5246 0 0.450905
4.09758 0 -15.0808
44.75 0 10.3297
4.05449 0 -16.5441
-20.5173 0 -10.2168
7.68439 0 -19.1631
-11.8266 0 17.5588
-56.1322 0 86.0389
14.1599 0 -0.971094
-18.1668 0 7.25708
1.58946 0 -29.5787
-29.9238 0 5.86688
3.3276 0 -5.41593
-6.69662 0 -19.7266
8.90512 0 2.69955
-49.8875 0 32.6373
24.8019 0 -41.8488
-12.4683 0 0.0307515
-2.79073 0 -5.80298
-4.97379 0 -76.8007
28.6381 0 -102.882
16.9121 0 -13.4735
5.76329 0 12.7545
-26.5142 0 13.2818
-95.7455 0 49.0401
7.02727 0 9.76583
-34.6196 0 64.9275
-7.26149 0 6.19484
4.08264 0 25.633
7.23094 0 6.99992
5.92304 0 5.09138
-6.22449 0 -28.1505
7.93655 0 10.1208
-1.89463 0 32.954
3.71543 0 -7.34351
9.41587 0 29.6468
-5.63334 0 -16.7223
16.5433 0 -13.3018
-6.94991 0 -16.8912
-50.3145 0 9.61221
-3.05612 0 -14.7038
30.9032 0 2.07908
6.9028 0 -17.2486
15.6525 0 5.09997
-5.85447 0 -12.2885
104.07 0 -10.2664
6.80001 0 33.1304
53.9971 0 91.894
-43.1085 0 -12.0507
1.44001 0 38.5421
-14.7034 0 -22.4766
24.4333 0 25.0411
-22.7661 0 -2.36605
-11.9112 0 22.762
-31.3086 0 -12.7337
-5.30796 0 -2.79376
37.2875 0 7.06978
106.091 0 11.2772
6.35586 0 13.9466
-3.11785 0 2.06631
8.46734 0 10.0643
-5.41381 0 9.08552
11.5319 0 27.6196
0.456571 0 -17.9225
-29.0968 0 -8.63181
12.4218 0 22.5648
-32.2903 0 -61.5493
-6.03987 0 -5.73481
-14.7506 0 -68.9968
-26.1557 0 -10.3647
4.85135 0 4.33556
-20.1109 0 63.8224
31.4537 0 -46.5188
-5.85413 0 -21.2793
6.6064 0 -18.817
4.90834 0 -62.4922
5.43266 0 12.8799
12.8797 0 12.1732
4.54952 0 17.7107
8.99151 0 -14.1326
2.96652 0 103.078
-10.8604 0 19.5072
-0.963608 0 14.7357
31.1542 0 -37.769
81.1132 0 -33.4425
19.8907 0 -29.7271
4.30764 0 -9.71314
-4.60299 0 8.1789
-1.01352 0 -21.7174
-21.0199 0 -29.4159
21.18 0 32.6613
4.19858 0 -28.7378
-49.3819 0 -4.20907
-15.3637 0 -13.7648
5.26884 0 2.72622
44.4617 0 -94.3306
-10.6505 0 20.7174
30.2293 0 -3.37975
-0.814995 0 -20.3953
-6.51372 0 22.3903
3.41838 0 9.75573
-9.09088 0 9.80836
5.91411 0 2.28492
-7.86216 0 20.305
-117.071 0 11.2438
-40.9701 0 7.89306
5.46864 0 -2.65008
33.2257 0 -13.4087
11.4819 0 24.4435
23.1213 0 -2.45802
-24.4302 0 25.2719
20.7512 0 2.93402
-11.954 0 8.74185
-0.782054 0 -13.6222
-1.94497 0 -7.43863
-5.53865 0 -1.8863
12.5815 0 -13.1044
-8.68512 0 15.2412
3.1054 0 -0.372845
37.0513 0 -64.6589
-39.3486 0 33.7766
3.75854 0 7.61739
-72.4697 0 -114.271
39.4173 0 -53.2761
0.220117 0 1.235
-16.9258 0 9.31416
71.4637 0 -1.30943
11.1968 0 -12.728
-8.82348 0 -3.95947
10.7647 0 -15.5319
89.4193 0 -2.24259
-9.15911 0 -11.2951
7.00624 0 -8.35415
5.82954 0 16.1936
-18.2352 0 7.83066
-7.99667 0 -8.73249
-9.10466 0 34.4559
13.1853 0 13.9276
28.5276 0 -4.47119
-23.8968 0 4.17489
-32.544 0 83.9166
20.3644 0 -6.76513
-5.23896 0 -44.3828
-46.3489 0 25.8111
-13.1821 0 12.9039
-3.74291 0 -20.2008
4.84003 0 20.2485
22.6814 0 -11.353
13.3198 0 -16.7939
-4.34179 0 5.29726
17.6528 0 1.91764
-87.6162 0 -19.885
68.1809 0 34.6155
-19.6873 0 14.9662
113.82 0 36.3357
-35.6462 0 15.3926
16.4684 0 9.4149
-4.51023 0 5.78643
-21.32 0 -27.1426
33.4649 0 -86.2342
-0.291247 0 6.87675
35.7135 0 51.7902
-35.5108 0 -60.5482
-4.92107 0 -1.6866
8.23193 0 13.353
-9.56945 0 -15.1202
7.29236 0 -2.00608
2.78762 0 -7.14067
1.35279 0 -13.3004
11.9024 0 8.07169
-20.7955 0 2.87188
16.4504 0 -15.3373
-27.3326 0 20.7591
11.4836 0 -39.0004
3.27085 0 11.1761
21.1176 0 16.333
5.16608 0 5.6547
-43.9517 0 -59.3531
38.048 0 -39.2419
-5.75652 0 -4.7012
4.56308 0 40.8903
14.1614 0 -11.0077
-24.9267 0 10.2072
61.571 0 127.775
-3.09359 0 -13.7612
-13.9402 0 -65.5737
5.01018 0 27.1466
1.09957 0 13.3394
-3.48611 0 7.45844
-62.8108 0 -56.0234
-6.67081 0 32.5373
30.8785 0 34.3939
0.305125 0 -13.3235
-13.2087 0 -0.724786
-2.33665 0 5.99421
-8.89464 0 -59.7003
9.01522 0 12.2764
8.79837 0 -3.23617
-11.6783 0 -3.68
-55.6522 0 -24.2111
-13.8111 0 -25.1082
19.6543 0 -1.70643
6.62139 0 -11.7834
93.3844 0 -61.0799
-4.50706 0 1.5948
-30.8846 0 -5.11441
11.9577 0 -39.1145
-4.28863 0 -5.64708
0.56634 0 -9.12784
9.54827 0 8.00343
-108.202 0 -44.2753
-20.7849 0 10.8778
17.4821 0 -6.78837
-5.79561 0 -4.71142
0.629217 0 21.204
7.88578 0 -4.5009
-8.348 0 -69.8367
6.06326 0 -19.2733
-41.8356 0 81.6746
16.962 0 -1.03782
-22.0392 0 -11.9855
16.984 0 3.61879
-9.14958 0 -2.61994
-24.7033 0 -27.1115
65.1122 0 -83.2956
-6.02105 0 3.3903
-20.5322 0 15.8095
-3.29071 0 11.2121
-12.2053 0 -39.3977
27.4782 0 21.4679
-16.5595 0 -15.3238
5.95776 0 -43.8046
-23.5836 0 -4.59929
47.0795 0 11.269
9.1336 0 14.4157
1.7157 0 -2.73462
-19.5429 0 18.672
-25.4069 0 88.0935
42.5679 0 20.8119
-0.1846 0 -8.65522
-9.28657 0 -10.0401
-6.30118 0 1.32714
-11.5453 0 -13.8997
-47.2213 0 -40.9322
20.0196 0 39.7164
33.5942 0 -6.36457
-6.91687 0 -2.01413
30.9562 0 36.1825
-27.7536 0 56.9316
-26.1507 0 -8.26009
15.1212 0 -4.0829
-3.22033 0 -6.15803
40.8892 0 48.385
22.9987 0 -15.9309
-3.67381 0 13.7515
-2.59753 0 9.13329
-7.40736 0 1.56328
17.2448 0 -73.7625
-5.69295 0 42.53
1.5623 0 1.10031
5.25433 0 2.01017
-9.52018 0 -5.50407
8.17534 0 -14.3105
-103.942 0 66.0636
22.7519 0 -5.50847
-3.93813 0 2.26493
-3.72205 0 -19.1521
-10.0233 0 10.9469
-19.7468 0 -20.3161
5.87525 0 37.8694
25.6759 0 -25.9445
47.26 0 -42.9927
14.6626 0 8.24859
20.2531 0 7.85452
-44.015 0 75.5608
2.07077 0 -8.43819
-36.465 0 -80.9493
55.6178 0 72.9048
-52.6333 0 -2.38831
10.9163 0 -10.1684
10.3745 0 21.5113
-0.817366 0 -11.3865
4.54287 0 -8.43766
-74.6608 0 40.8642
19.1765 0 80.008
26.035 0 18.9825
-2.94211 0 -1.01202
-9.2754 0 14.6756
-46.6522 0 11.3811
23.5784 0 -4.23178
-6.40598 0 -38.1341
1.34248 0 12.67
13.9172 0 -14.9947
2.45405 0 25.9668
-42.1365 0 5.57108
-52.6663 0 2.23551
70.9212 0 -37.938
18.1767 0 -8.6722
-24.8989 0 3.62201
8.86145 0 26.4897
-2.78235 0 -11.9077
-6.25414 0 10.1501
-0.469412 0 -7.50717
-59.1322 0 17.4912
52.6571 0 68.2095
0.616763 0 3.98105
18.4707 0 -59.5301
-11.9924 0 15.8026
-11.3438 0 -16.9403
2.65039 0 -5.98377
10.4961 0 -8.94459
7.85544 0 -7.941
-1.9679 0 -6.29661
-11.842 0 20.2447
20.4431 0 -36.6078
-1.28791 0 -14.5442
-14.6661 0 -8.5223
7.30828 0 16.0823
-15.0648 0 -4.2438
-71.4014 0 -55.1572
25.2715 0 -1.9716
-3.96642 0 -5.1517
1.35251 0 12.0767
-14.4414 0 -7.68338
2.42867 0 11.2837
-31.5903 0 -24.8216
19.9806 0 15.8904
-9.77922 0 -18.4294
-4.08762 0 -5.00563
-4.2739 0 14.267
-71.9331 0 56.6041
13.7579 0 -45.9718
-14.9994 0 -6.83922
-12.45 0 -3.48175
11.4514 0 17.7954
-38.0956 0 10.4259
3.03577 0 49.9554
-30.6707 0 6.81788
104.72 0 0.411411
-5.66923 0 -21.3052
9.91694 0 16.1511
-6.39516 0 1.68494
-5.50632 0 28.2142
19.2134 0 5.56104
-23.1348 0 -4.52167
-57.1017 0 -40.5325
45.4511 0 -0.972804
39.5653 0 1.70671
-5.15692 0 29.2914
3.52432 0 -47.9282
8.77663 0 12.1148
12.5903 0 8.36083
-5.51681 0 -14.6185
-16.1386 0 44.7586
7.54351 0 3.16911
1.19696 0 12.1253
6.63851 0 7.43592
-2.83472 0 10.6829
-1.52085 0 -27.9806
10.9316 0 -20.2178
-16.115 0 -25.687
27.409 0 0.229263
60.2403 0 19.4467
14.0489 0 -73.4373
18.2453 0 -7.7602
55.5828 0 -32.3407
-12.1951 0 63.6186
-3.54338 0 5.98619
9.54561 0 6.87227
-143.869 0 -132.523
7.77909 0 28.6434
-22.2526 0 7.9209
-0.618264 0 1.28572
5.98515 0 8.55143
13.4543 0 -0.379414
12.5018 0 63.0121
-21.777 0 1.74168
-0.492781 0 -2.24202
-3.268 0 53.2452
79.0217 0 33.6684
28.0982 0 34.6539
-6.31695 0 -2.29482
-10.2196 0 31.473
47.6378 0 5.58818
15.4939 0 -0.0281013
-64.6414 0 3.64719
21.4723 0 44.0895
-5.92197 0 -1.89092
-0.45043 0 -15.583
-22.8544 0 31.2405
-4.12472 0 14.0258
-15.6331 0 15.9076
-13.7179 0 1.38833
-0.989157 0 5.59887
6.95062 0 2.58958
-6.77983 0 4.90689
-14.6506 0 -14.159
-18.7185 0 -4.18086
7.61064 0 1.75234
15.4911 0 -30.9506
-11.8091 0 -1.26206
10.9746 0 -31.2878
-14.8291 0 -31.5409
0.908268 0 -25.1306
4.16238 0 10.1169
-5.89448 0 5.18062
1.49606 0 10.8268
-5.39941 0 4.64282
15.7461 0 36.7941
-20.5249 0 22.7389
-11.4652 0 12.0297
12.6135 0 0.521755
17.6744 0 8.16624
-20.4986 0 -39.4525
43.0473 0 2.78959
-6.14477 0 0.673017
-62.4684 0 2.32314
0.392911 0 22.1059
-6.73743 0 4.08106
8.44997 0 21.6842
14.8675 0 -4.02803
-1.52969 0 -4.36885
-59.6745 0 -17.055
4.68801 0 6.52282
-38.4317 0 84.921
9.25107 0 23.4394
4.34347 0 6.01166
-14.7095 0 10.0834
11.0844 0 4.32659
-28.3733 0 1.53159
115.544 0 -0.954612
2.49171 0 -75.4086
27.8989 0 9.35109
17.1109 0 2.53502
-20.71 0 -30.839
-33.9183 0 23.92
0.656075 0 6.97737
-15.6677 0 -6.63791
-40.9832 0 -26.7962
-1.49492 0 -2.1041
-54.6645 0 -6.43986
-5.96579 0 -20.8211
4.29224 0 2.19396
-6.27098 0 -45.3939
-3.34578 0 -17.3153
70.5644 0 -28.1696
9.96292 0 28.5101
-16.8982 0 -1.78002
0.551356 0 -11.1067
28.0266 0 -32.2852
-9.93704 0 -16.0955
44.1578 0 -28.2586
-2.91745 0 -8.18566
-16.626 0 -1.46027
7.99088 0 10.8739
8.16683 0 -11.49
-13.212 0 11.9795
-14.1659 0 -19.257
2.67916 0 24.928
3.57385 0 -0.704858
-2.18654 0 -3.955
-11.9928 0 24.4216
35.3149 0 -22.129
10.4627 0 -7.15126
-2.89202 0 32.0311
38.8678 0 -4.1496
-0.0694001 0 -6.98004
-44.4063 0 1.89931
22.2605 0 -38.0029
-17.3766 0 6.53647
-14.843 0 0.539504
-8.32981 0 -12.5078
-58.8529 0 29.174
14.5783 0 24.0613
-4.44296 0 1.62659
28.4247 0 -17.114
-43.9392 0 -62.0007
50.743 0 -9.32553
-56.0485 0 50.8986
-51.7797 0 -60.6252
55.1806 0 -60.846
1.37881 0 6.90281
3.97596 0 -6.31833
-21.9208 0 -10.7079
16.9487 0 -9.3077
2.12945 0 -12.4041
-12.2355 0 9.59928
-44.0073 0 -7.24547
5.94173 0 -96.2642
22.2171 0 12.6779
35.5572 0 -14.7328
-1.01796 0 -0.939402
-10.7655 0 6.91878
47.2229 0 -8.82087
1.10967 0 -28.8759
-10.9915 0 4.67395
5.27059 0 1.49234
-4.57424 0 6.20062
-29.012 0 15.5231
1.79612 0 4.36491
53.1047 0 6.51686
9.80984 0 3.00556
-4.34813 0 20.7838
-37.1675 0 8.89426
12.9958 0 41.1914
2.4414 0 -10.9929
24.6466 0 -12.5855
-16.2841 0 8.71762
16.2795 0 28.7582
50.8731 0 -18.4607
-14.9685 0 56.2932
35.0301 0 -2.03201
23.4781 0 15.7826
-6.45077 0 11.4422
34.5931 0 5.03245
0.405357 0 16.951
-6.43696 0 0.155113
6.78622 0 -15.2546
-11.3885 0 -9.57619
-4.01958 0 13.918
-26.9763 0 -19.5433