# vtk DataFile Version 3.0
SiWiRVisFile
ASCII
DATASET UNSTRUCTURED_GRID
POINTS 1600 DOUBLE
77.042 100 72.722
75.2749 100 72.6673
76.1444 100 73.3323
78.2031 100 73.1793
79.4078 100 73.7601
80.2823 100 74.2722
81.3237 100 73.6713
82.6341 100 73.9367
83.6746 100 74.2359
83.4883 100 73.0541
92.6209 100 67.2895
91.4527 100 67.0899
91.825 100 68.1188
90.1427 100 67.1648
84.3409 100 66.8683
90.0705 100 58.5048
91.4125 100 58.2967
91.3143 100 56.5827
87.3242 100 50.1446
93.5362 100 54.8201
106.897 100 33.5581
107.189 100 31.8747
106.286 100 31.2122
107.316 100 30.5971
105.294 100 31.5886
112.008 100 33.0718
110.892 100 24.5725
112.323 100 23.5382
110.571 100 26.4248
111.744 100 26.1783
112.915 100 25.7883
113.746 100 26.5004
112.176 100 24.9171
113.774 100 25.1823
114.512 100 30.7626
118.597 100 31.5902
116.846 100 30.447
117.449 100 31.4654
116.723 100 32.2596
116.895 100 33.3214
131.506 100 55.5119
137.168 100 50.1446
131.447 100 56.721
133.052 100 58.0815
135.281 100 57.4815
135.504 100 69.0126
134.457 100 66.6448
134.174 100 68.7254
133.24 100 66.8096
133.51 100 67.8389
140.764 100 73.2606
140.398 100 74.3114
141.675 100 73.9724
142.873 100 73.4886
144.408 100 73.7573
145.608 100 73.3511
146.571 100 73.0479
148.548 100 73.5971
149.187 100 72.6538
147.848 100 72.544
74.3317 100 73.4344
75.2891 100 74.0017
77.2192 100 73.9118
78.2789 100 74.3476
79.2825 100 74.8368
81.2632 100 74.694
82.2587 100 75.0895
83.366 100 75.3863
84.4793 100 74.9853
85.7624 100 75.4434
87.0437 100 75.3166
92.2607 100 66.2678
90.8274 100 68.0657
91.1071 100 64.2225
90.9756 100 59.3015
90.7409 100 66.2519
92.0973 100 57.2088
92.3844 100 56.0914
93.4477 100 56.3165
96.631 100 53.8355
106.304 100 32.51
96.4229 100 39.6451
106.528 100 43.1751
109.363 100 29.5786
108.533 100 30.3475
111.967 100 31.9425
110.609 100 31.4914
109.553 100 30.7964
106.776 100 21.7511
111.469 100 27.3387
112.633 100 27.0812
118.053 100 21.8165
113.227 100 29.0695
115.549 100 30.4631
115.266 100 31.9381
116.265 100 31.3285
114.385 100 28.4238
118.771 100 42.8501
128.07 100 39.6451
117.898 100 32.6165
127.392 100 55.0765
129.156 100 55.6993
131.995 100 54.3943
134.026 100 57.3842
133.27 100 65.5918
133.392 100 59.0746
131.939 100 62.7705
134.632 100 67.7282
132.145 100 65.8756
138.36 100 75.7371
139.306 100 75.2573
140.308 100 75.3484
141.423 100 75.0597
142.536 100 74.7033
143.506 100 74.2957
145.392 100 74.5335
146.455 100 74.1655
147.458 100 73.79
149.397 100 74.2387
150.113 100 73.2509
74.3826 100 74.5199
75.4049 100 75.1261
76.3314 100 74.4965
77.3107 100 74.9479
78.264 100 75.4663
80.2452 100 75.3008
81.3352 100 75.8789
82.4246 100 76.1703
83.7107 100 76.3991
84.7207 100 76.0325
86.5198 100 76.2932
86.3612 100 77.4228
88.3711 100 77.2227
91.9466 100 65.194
90.3605 100 62.6177
93.0931 100 61.5934
92.5457 100 58.2677
93.309 100 57.4119
94.5531 100 57.0244
95.6991 100 54.41
97.7063 100 53.4102
104.379 100 44.1487
105.597 100 43.6594
106.523 100 44.2782
98.6824 100 41.0748
107.82 100 43.484
107.585 100 42.5094
105.527 100 42.5828
111.383 100 28.4312
112.325 100 29.6281
112.405 100 28.2823
113.555 100 27.9065
121.992 100 42.6492
118.487 100 41.8347
117.482 100 43.3467
120.814 100 43.5728
118.419 100 44.5558
119.274 100 43.819
120.856 100 44.7552
126.435 100 54.1696
130.12 100 55.2742
129.832 100 56.4864
132.928 100 56.9216
132.13 100 57.6137
132.688 100 60.7526
131.948 100 61.5828
132.312 100 64.6327
136.522 100 76.2422
137.77 100 76.6746
138.848 100 76.7244
139.971 100 76.3523
141.052 100 76.1498
142.266 100 75.8921
143.309 100 75.4886
144.362 100 74.9538
146.177 100 75.3979
147.255 100 75.0245
148.231 100 74.7399
149.059 100 75.3726
150.427 100 74.8181
74.3933 100 75.6554
75.4162 100 76.2271
76.3839 100 75.6532
77.3124 100 76.0778
79.2949 100 75.8633
80.1292 100 76.4455
81.2092 100 76.9277
82.2385 100 77.2695
84.4036 100 77.237
85.4571 100 76.786
85.6634 100 79.0303
87.436 100 77.6313
87.5248 100 76.5387
92.2324 100 63.7456
91.2975 100 63.1138
91.1481 100 61.8832
93.0081 100 59.3596
91.9875 100 59.6644
93.8068 100 58.4384
95.1828 100 58.2568
95.2659 100 56.2211
98.0904 100 55.0649
104.595 100 43.0374
105.316 100 48.3799
105.388 100 44.8106
105.863 100 45.8177
107.959 100 45.9693
110.765 100 46.0846
108.69 100 42.5524
111.918 100 30.7073
113.678 100 30.0167
115.333 100 41.4819
115.472 100 44.1096
116.37 100 45.019
117.564 100 45.5642
119.459 100 45.0003
118.687 100 45.7869
119.895 100 42.1761
126.084 100 55.2648
128.852 100 56.805
129.53 100 57.5846
131.55 100 58.5844
132.365 100 59.6112
131.643 100 60.6018
130.92 100 61.6652
131.605 100 63.9015
131.115 100 64.9273
137.4 100 75.1414
137.52 100 78.1591
138.733 100 77.8859
139.689 100 77.5869
140.694 100 77.1572
141.984 100 77.0314
143.111 100 76.8413
144.108 100 76.3293
145.142 100 75.8325
146.967 100 76.1274
148.092 100 75.9124
149.029 100 76.427
149.979 100 75.7895
74.4336 100 76.8255
75.4181 100 77.2967
76.4832 100 76.7917
78.3679 100 76.5424
79.3068 100 77.1934
80.3518 100 77.5599
81.4356 100 78.0603
82.4744 100 78.3794
83.28 100 77.6553
84.5321 100 78.4122
85.4297 100 80.1964
89.0218 100 78.4434
88.8115 100 76.24
95.3715 100 61.9432
92.2623 100 62.554
93.7143 100 60.3701
96.3001 100 60.4907
95.9841 100 59.2486
95.6071 100 57.2719
96.5318 100 56.0167
96.8297 100 54.9471
102.911 100 52.5232
104.891 100 47.3167
106.894 100 46.763
107.041 100 45.5803
108.277 100 47.1399
109.216 100 46.6962
110.107 100 47.2265
107.884 100 44.6428
110.916 100 32.7985
110.649 100 33.9474
116.478 100 43.7973
113.501 100 46.7654
114.51 100 46.3986
116.016 100 46.1707
117.373 100 44.5295
117.284 100 46.7625
117.976 100 47.8727
122.054 100 51.8427
128.448 100 54.8494
128.031 100 55.9972
128.521 100 57.8923
130.267 100 58.7507
131.121 100 59.5262
129.985 100 59.7514
130.5 100 63.9041
130.553 100 62.8196
136.91 100 77.2361
136.337 100 78.4623
139.485 100 79.9893
139.457 100 78.7352
140.469 100 78.3609
141.722 100 78.1476
142.801 100 77.9144
143.96 100 77.5313
144.92 100 77.0229
145.994 100 76.6181
147.728 100 76.9412
148.752 100 77.497
150.011 100 76.8619
74.5122 100 77.8837
75.5446 100 78.4792
76.5005 100 77.9557
77.4728 100 77.2332
78.3791 100 77.7493
79.4747 100 78.3162
80.5957 100 78.7684
81.5793 100 79.1499
82.5394 100 79.446
83.5608 100 78.8534
84.6517 100 79.4714
86.7214 100 78.4861
89.1495 100 79.7086
88.1797 100 75.3743
89.9348 100 76.2318
94.1967 100 61.5371
96.3907 100 61.6531
97.3825 100 60.6542
96.945 100 59.5586
96.7022 100 57.4199
97.6427 100 56.0388
99.8071 100 55.2188
104.287 100 51.1578
104.82 100 50.2132
106.064 100 47.5057
107.268 100 47.8386
108.544 100 49.7833
109.25 100 47.7951
111.943 100 46.0026
110.912 100 44.9841
114.389 100 44.6698
114.07 100 47.678
115.347 100 47.292
115.887 100 48.3533
116.375 100 47.3808
118.574 100 46.9566
119.026 100 48.3469
121.99 100 50.7946
124.396 100 55.8885
126.901 100 56.2572
127.743 100 57.1361
129.133 100 58.8222
128.374 100 60.3068
129 100 61.2683
130.054 100 60.9031
135.404 100 75.9201
137.512 100 72.7238
135.602 100 79.3698
138.226 100 79.0782
140.472 100 79.5541
141.597 100 79.284
142.596 100 80.3687
142.724 100 79.2248
143.745 100 78.919
144.692 100 78.381
145.755 100 77.81
146.773 100 77.3708
147.759 100 77.9711
148.82 100 78.6937
149.613 100 78.1099
73.2841 100 78.3896
74.2749 100 79.0357
76.4482 100 79.1064
77.4706 100 78.4599
78.3961 100 78.9958
78.6517 100 81.4987
80.497 100 79.8378
81.5492 100 80.2155
82.6628 100 80.6407
83.547 100 79.9333
85.5604 100 81.2393
87.9626 100 78.4973
89.7834 100 80.7204
89.3196 100 75.0279
95.0991 100 63.0964
95.0185 100 60.6502
96.2134 100 62.8183
98.3562 100 61.2656
97.1431 100 58.4155
97.7676 100 57.3281
98.762 100 55.7858
101.009 100 55.1501
104.007 100 52.2449
106.412 100 48.6665
109.279 100 50.8404
109.431 100 49.1045
106.818 100 52.1268
110.275 100 48.2993
105.916 100 52.9372
107.844 100 52.4231
118.008 100 53.4656
117.094 100 52.5331
115.136 100 49.2973
115.777 100 53.4395
115.495 100 50.5129
116.236 100 49.406
116.994 100 48.325
120.951 100 51.8389
122.043 100 54.0129
125.497 100 56.4214
126.266 100 57.1904
127.986 100 58.9612
127.021 100 59.948
127.866 100 61.4984
129.828 100 61.9184
129.555 100 63.0256
136.282 100 75.1593
130.477 100 80.0255
136.95 100 79.4371
140.334 100 80.6747
141.434 100 80.668
142.028 100 81.5711
143.754 100 80.0055
144.78 100 79.6729
145.7 100 80.1029
145.702 100 78.9644
146.702 100 78.5114
147.703 100 79.0802
149.721 100 79.2191
150.702 100 78.4614
73.3614 100 79.6392
74.5083 100 80.0767
75.5999 100 79.7158
76.5203 100 80.2127
77.3795 100 79.5169
77.6281 100 80.6269
78.7682 100 80.4239
80.8347 100 81.0945
81.8419 100 81.4984
83.2277 100 81.6483
84.1641 100 82.041
85.3445 100 82.4284
86.5678 100 79.7506
86.4559 100 82.1395
86.1585 100 83.1736
90.5789 100 79.7316
95.8368 100 64.1796
97.4859 100 61.9002
99.1029 100 59.1578
97.997 100 59.4508
98.3083 100 58.1845
98.7697 100 56.8209
104.631 100 53.1221
105.511 100 49.4096
107.533 100 49.0134
108.222 100 51.3011
107.512 100 50.4487
105.374 100 53.9974
106.514 100 53.8688
108.3 100 55.266
116.883 100 53.6907
119.834 100 54.0645
120.499 100 55.1753
117.224 100 50.8942
116.061 100 51.5765
117.296 100 49.7357
118.071 100 48.9369
121.721 100 52.9241
124.615 100 57.1231
127.054 100 58.2634
125.79 100 59.1853
125.823 100 60.2686
126.838 100 61.083
128.733 100 62.3818
131.406 100 79.3331
138.568 100 82.1934
139.082 100 81.0836
138.21 100 80.1725
139.805 100 82.0534
140.402 100 82.9157
140.789 100 81.6511
143.224 100 81.387
144.477 100 81.7593
144.608 100 80.6761
146.737 100 81.0167
146.63 100 79.5736
147.691 100 80.1772
148.795 100 79.7899
149.863 100 80.2403
151.07 100 79.5062
73.2705 100 80.7753
74.3617 100 81.2071
75.567 100 80.8501
76.5758 100 81.3509
77.2845 100 82.9431
75.3711 100 84.574
77.5448 100 81.8145
79.7837 100 81.389
80.8968 100 82.2473
79.5599 100 82.6411
81.8519 100 82.602
83.3711 100 84.0336
83.9713 100 83.1369
85.1493 100 83.4934
87.2407 100 83.1859
90.2096 100 78.5202
97.0147 100 64.2347
97.4386 100 63.1762
98.8402 100 60.2803
101.528 100 60.0358
[...]
POINT_DATA 1600
SCALARS mass double
LOOKUP_TABLE default
1
1
1
1
1
1
1
1
1
1
1
1
1
1
1
1
1
1
1
1
1
1
1
1
1
1
1
1
1
1
1
1
1
1
1
1
1
1
1
1
1
1
1
1
1
1
1
1
1
1
1
1
1
1
1
1
1
1
1
1
1
1
1
1
1
1
1
1
1
1
1
1
1
1
1
1
1
1
1
1
1
1
1
1
1
1
1
1
1
1
1
1
1
1
1
1
1
1
1
1
1
1
1
1
1
1
1
1
1
1
1
1
1
1
1
1
1
1
1
1
1
1
1
1
1
1
1
1
1
1
1
1
1
1
1
1
1
1
1
1
1
1
1
1
1
1
1
1
1
1
1
1
1
1
1
1
1
1
1
1
1
1
1
1
1
1
1
1
1
1
1
1
1
1
1
1
1
1
1
1
1
1
1
1
1
1
1
1
1
1
1
1
1
1
1
1
1
1
1
1
1
1
1
1
1
1
1
1
1
1
1
1
1
1
1
1
1
1
1
1
1
1
1
1
1
1
1
1
1
1
1
1
1
1
1
1
1
1
1
1
1
1
1
1
1
1
1
1
1
1
1
1
1
1
1
1
1
1
1
1
1
1
1
1
1
1
1
1
1
1
1
1
1
1
1
1
1
1
1
1
1
1
1
1
1
1
1
1
1
1
1
1
1
1
1
1
1
1
1
1
1
1
1
1
1
1
1
1
1
1
1
1
1
1
1
1
1
1
1
1
1
1
1
1
1
1
1
1
1
1
1
1
1
1
1
1
1
1
1
1
1
1
1
1
1
1
1
1
1
1
1
1
1
1
1
1
1
1
1
1
1
1
1
1
1
1
1
1
1
1
1
1
1
1
1
1
1
1
1
1
1
1
1
1
1
1
1
1
1
1
1
1
1
1
1
1
1
1
1
1
1
1
1
1
1
1
1
1
1
1
1
1
1
1
1
1
1
1
1
1
1
1
1
1
1
1
1
1
1
1
1
1
1
1
1
1
1
1
1
1
1
1
1
1
1
1
1
1
1
1
1
1
1
1
1
1
1
1
1
1
1
1
1
1
1
1
1
1
1
1
1
1
1
1
1
1
1
1
1
1
1
1
1
1
1
1
1
1
1
1
1
1
1
1
1
1
1
1
1
1
1
1
1
1
1
1
1
1
1
1
1
1
1
1
1
1
1
1
1
1
1
1
1
1
1
1
1
1
1
1
1
1
1
1
1
1
1
1
1
1
1
1
1
1
1
1
1
1
1
1
1
1
1
1
1
1
1
1
1
1
1
1
1
1
1
1
1
1
1
1
1
1
1
1
1
1
1
1
1
1
1
1
1
1
1
1
1
1
1
1
1
1
1
1
1
1
1
1
1
1
1
1
1
1
1
1
1
1
1
1
1
1
1
1
1
1
1
1
1
1
1
1
1
1
1
1
1
1
1
1
1
1
1
1
1
1
1
1
1
1
1
1
1
1
1
1
1
1
1
1
1
1
1
1
1
1
1
1
1
1
1
1
1
1
1
1
1
1
1
1
1
1
1
1
1
1
1
1
1
1
1
1
1
1
1
1
1
1
1
1
1
1
1
1
1
1
1
1
1
1
1
1
1
1
1
1
1
1
1
1
1
1
1
1
1
1
1
1
1
1
1
1
1
1
1
1
1
1
1
1
1
1
1
1
1
1
1
1
1
1
1
1
1
1
1
1
1
1
1
1
1
1
1
1
1
1
1
1
1
1
1
1
1
1
1
1
1
1
1
1
1
1
1
1
1
1
1
1
1
1
1
1
1
1
1
1
1
1
1
1
1
1
1
1
1
1
1
1
1
1
1
1
1
1
1
1
1
1
1
1
1
1
1
1
1
1
1
1
1
1
1
1
1
1
1
1
1
1
1
1
1
1
1
1
1
1
1
1
1
1
1
1
1
1
1
1
1
1
1
1
1
1
1
1
1
1
1
1
1
1
1
1
1
1
1
1
1
1
1
1
1
1
1
1
1
1
1
1
1
1
1
1
1
1
1
1
1
1
1
1
1
1
1
1
1
1
1
1
1
1
1
1
1
1
1
1
1
1
1
1
1
1
1
1
1
1
1
1
1
1
1
1
1
1
1
1
1
1
1
1
1
1
1
1
1
1
1
1
1
1
1
1
1
1
1
1
1
1
1
1
1
1
1
1
1
1
1
1
1
1
1
1
1
1
1
1
1
1
1
1
1
1
1
1
1
1
1
1
1
1
1
1
1
1
1
1
1
1
1
1
1
1
1
1
1
1
1
1
1
1
1
1
1
1
1
1
1
1
1
1
1
1
1
1
1
1
1
1
1
1
1
1
1
1
1
1
1
1
1
1
1
1
1
1
1
1
1
1
1
1
1
1
1
1
1
1
1
1
1
1
1
1
1
1
1
1
1
1
1
1
1
1
1
1
1
1
1
1
1
1
1
1
1
1
1
1
1
1
1
1
1
1
1
1
1
1
1
1
1
1
1
1
1
1
1
1
1
1
1
1
1
1
1
1
1
1
1
1
1
1
1
1
1
1
1
1
1
1
1
1
1
1
1
1
1
1
1
1
1
1
1
1
1
1
1
1
1
1
1
1
1
1
1
1
1
1
1
1
1
1
1
1
1
1
1
1
1
1
1
1
1
1
1
1
1
1
1
1
1
1
1
1
1
1
1
1
1
1
1
1
1
1
1
1
1
1
1
1
1
1
1
1
1
1
1
1
1
1
1
1
1
1
1
1
1
1
1
1
1
1
1
1
1
1
1
1
1
1
1
1
1
1
1
1
1
1
1
1
1
1
1
1
1
1
1
1
1
1
1
1
1
1
1
1
1
1
1
1
1
1
1
1
1
1
1
1
1
1
1
1
1
1
1
1
1
1
1
1
1
1
1
1
1
1
1
1
1
1
1
1
1
1
1
1
1
1
1
1
1
1
1
1
1
1
1
1
1
1
1
1
1
1
1
1
1
1
1
1
1
1
1
1
1
1
1
1
1
1
1
1
1
1
1
1
1
1
1
1
1
1
1
1
1
1
1
1
1
1
1
1
1
1
1
1
1
1
1
1
1
1
1
1
1
1
1
1
1
1
1
1
1
1
1
1
1
1
1
1
1
1
1
1
1
1
1
1
1
1
1
1
1
1
1
1
1
1
1
1
1
1
1
1
1
1
1
1
1
1
1
1
1
1
1
1
1
1
1
1
1
1
1
1
1
1
1
1
1
1
1
1
1
1
1
1
1
1
1
1
1
1
1
1
1
1
1
1
1
1
1
1
1
1
1
1
1
1
1
1
1
1
1
1
1
1
1
1
1
1
1
1
1
1
1
1
1
1
1
1
1
1
1
1
1
1
1
1
1
1
1
1
1
1
1
1
1
1
1
1
1
1
1
1
1
1
1
1
1
1
1
1
1
1
1
1
1
1
1
1
1
1
1
1
1
1
1
1
1
1
1
1
1
1
1
1
1
1
1
1
1
1
1
1
1
1
1
1
1
1
1
1
1
1
1
1
1
1
1
1
1
1
1
1
1
1
1
1
1
1
1
1
1
1
1
1
1
1
1
1
1
1
1
1
1
1
1
1
1
1
1
1
1
1
1
1
1
1
1
1
1
1
1
1
1
1
1
1
1
1
1
1
VECTORS force double
22.8211 0 9.41439
-14.7944 0 13.0093
18.1596 0 23.4449
-11.5428 0 18.4326
-95.9446 0 -58.0322
61.8409 0 -30.3745
4.76966 0 -62.5461
-23.5847 0 2.19403
2.82987 0 1.74018
-6.87854 0 20.3986
-10.5837 0 17.6506
1.62726 0 -0.821953
128.838 0 9.84853
7.31414 0 11.6586
0 0 0
18.9387 0 5.76048
7.66402 0 -14.0629
-79.2131 0 -71.8721
0 0 0
-1.14033 0 8.0807
-5.15704 0 -12.581
11.3064 0 -16.7665
39.0044 0 -6.11197
1.24756 0 15.2605
-21.3518 0 17.614
-4.54108 0 -1.02141
12.5955 0 4.5148
-2.22527 0 10.5951
20.3991 0 4.92568
10.1924 0 6.76821
-58.9173 0 27.4395
-4.61642 0 10.2954
-5.74489 0 3.68575
28.5227 0 -13.1247
-11.0901 0 12.4159
-15.5338 0 9.24034
13.7882 0 -18.976
8.54913 0 -12.545
13.3806 0 44.5447
12.902 0 11.7092
-4.40676 0 1.02237
0 0 0
2.41405 0 -9.48395
42.0597 0 -24.2965
-12.6034 0 -0.752536
-12.2474 0 -6.09024
-19.9024 0 -5.36608
8.25539 0 13.1265
1.76464 0 -44.3587
9.07799 0 19.6454
7.69818 0 3.57772
18.6355 0 -37.7412
-2.38875 0 -4.07216
-54.0867 0 -38.4301
51.7258 0 -6.03666
-100.707 0 52.9994
109.125 0 -26.0554
-22.4 0 -19.6787
-18.4721 0 3.50962
4.70541 0 25.9073
8.33551 0 -21.9958
40.885 0 -16.3833
22.357 0 -87.838
-0.488288 0 -13.5965
-28.9134 0 -60.405
-7.26941 0 90.9558
21.6609 0 -6.49791
-7.43842 0 -30.7636
-2.1581 0 -5.02025
-6.39311 0 14.2027
-0.859755 0 9.14346
-16.0334 0 -8.30177
-118.35 0 -17.0964
18.1378 0 1.58635
-30.4813 0 -6.63176
10.5074 0 -16.9057
102.469 0 81.4603
-20.2755 0 9.55129
22.5055 0 0.0045035
16.7526 0 -4.74921
-11.81 0 -0.645028
0 0 0
50.1696 0 -32.7313
0.333801 0 13.6369
-12.8726 0 0.694767
-15.1093 0 -6.26432
3.98487 0 3.18808
10.3534 0 -4.11366
0 0 0
14.217 0 -23.3767
0.0037145 0 -1.31214
0 0 0
16.1976 0 -74.5448
27.4385 0 0.780055
11.0076 0 -16.3016
-42.3864 0 -13.45
141.292 0 102.19
5.45274 0 26.6391
0 0 0
-19.3168 0 -18.3338
-39.3359 0 10.1622
-79.685 0 -13.5916
-5.41651 0 11.3154
-8.60772 0 5.01404
-11.8968 0 9.51534
4.65427 0 42.0755
-16.918 0 -3.46502
4.17619 0 2.94064
8.47793 0 -15.1041
-29.4976 0 5.00015
-66.599 0 -12.986
111.388 0 21.2125
-2.58573 0 7.71595
-49.9489 0 12.9332
28.9383 0 64.2746
0.782456 0 -2.76327
-25.3226 0 21.8699
20.9795 0 -0.547973
23.349 0 26.5418
-4.47313 0 18.4394
-29.51 0 47.2283
-14.7202 0 -13.8224
-48.8782 0 3.87216
5.65918 0 58.406
12.6821 0 -15.6432
44.1337 0 80.8928
-5.76152 0 -52.1205
14.8525 0 7.91081
-34.8562 0 26.0638
0.901105 0 -9.58056
-69.6772 0 -2.01205
-0.709342 0 -5.46461
88.1166 0 11.7968
-9.81198 0 -12.4538
-40.9151 0 0.569691
-10.1665 0 0.67287
10.7785 0 5.88446
-5.71191 0 7.14417
-48.4601 0 21.2489
2.59383 0 13.5265
-7.39134 0 7.21803
21.8145 0 -0.979023
-57.5548 0 45.0665
5.05747 0 21.641
0 0 0
19.7536 0 111.103
-43.6053 0 -103.526
57.9626 0 -37.5851
-57.3974 0 21.7084
-23.244 0 10.4727
71.4321 0 -19.0843
-176.31 0 -95.9525
-5.26835 0 3.71656
-4.08831 0 -32.5621
19.1475 0 8.28319
-2.4314 0 5.20095
41.3676 0 14.6716
9.63964 0 20.5475
-9.79015 0 -9.61958
6.68106 0 14.3738
38.6493 0 -1.61007
101.661 0 15.2401
31.2655 0 -11.5487
-80.5572 0 -0.150998
34.4831 0 -8.47859
80.5668 0 74.0894
52.1068 0 81.7426
-4.07488 0 -20.3005
28.4141 0 -33.414
40.5553 0 17.2105
-49.808 0 25.1398
45.5197 0 -18.5984
-11.6992 0 2.01827
21.0964 0 3.51798
7.85232 0 21.1381
-16.0059 0 -21.7563
-84.7255 0 20.4459
47.7793 0 -67.1542
-37.264 0 -60.9453
-6.12078 0 -28.5892
15.0095 0 7.50206
-0.766761 0 -13.9979
-62.8047 0 -38.4009
88.6368 0 33.0795
-73.7667 0 39.5753
89.8139 0 42.9177
1.0377 0 13.2373
10.189 0 7.1825
7.33464 0 11.8965
26.3151 0 14.8364
8.7775 0 -0.757492
-110.601 0 -40.2973
54.0974 0 -20.0264
-13.7064 0 -1.73736
27.0561 0 6.29308
27.1153 0 4.30441
36.5989 0 -17.9654
-5.91119 0 4.90366
-11.3222 0 -1.0677
-11.778 0 22.3173
24.2533 0 -24.3323
-109.609 0 -138.608
-41.8094 0 33.9994
-1.32542 0 -49.8604
3.53968 0 -23.7394
19.3579 0 6.75706
115.366 0 60.5913
0.742331 0 14.2601
-3.23898 0 9.26462
-0.493412 0 7.53956
10.5841 0 33.876
0 0 0
-37.2006 0 25.8457
-1.48843 0 -3.46179
5.68386 0 41.678
7.68998 0 -18.3648
-16.7353 0 1.43565
-14.7648 0 8.62186
13.7313 0 13.7766
-114.8 0 -31.7852
77.6239 0 48.9942
25.3937 0 -47.1956
-16.0576 0 3.78423
-66.5219 0 -82.1047
-63.8529 0 6.18324
-56.6047 0 -71.5272
13.9516 0 -10.4629
-0.54473 0 12.4618
6.15987 0 12.1055
-128.253 0 33.4257
86.9921 0 -47.3602
26.372 0 46.8669
-6.30944 0 -3.6697
-19.0732 0 -24.5195
-19.8029 0 -22.0525
-5.94089 0 1.82248
29.5277 0 12.8203
-33.5116 0 -36.0074
-2.66738 0 35.7569
70.2212 0 40.8779
-6.42514 0 -48.1896
47.4124 0 31.5153
-41.1549 0 2.76876
3.52873 0 25.5383
3.53748 0 -18.4509
-11.5582 0 34.9195
-17.491 0 -28.9205
0.697131 0 -2.5592
34.9946 0 -9.32997
25.0459 0 -46.5116
28.1242 0 -35.3083
43.2064 0 -6.31387
18.7043 0 0.758512
-38.1147 0 11.5486
-1.59198 0 -4.64763
2.46358 0 9.88285
-21.4088 0 -2.53946
-93.303 0 -31.6613
24.9827 0 -14.6182
-15.6246 0 15.9905
8.31273 0 -2.72271
4.5898 0 -0.783616
14.853 0 5.70679
13.2982 0 -17.27
-124.662 0 -52.9548
-60.7204 0 22.7697
-3.28983 0 -63.9214
106.851 0 -32.3979
-16.6144 0 8.44869
3.9449 0 -6.68987
5.4394 0 -11.9001
34.7064 0 9.33844
-33.2659 0 -11.204
32.3277 0 7.07562
6.12522 0 12.6338
-54.9542 0 -54.7438
18.6567 0 -6.40398
4.50991 0 -30.1241
7.52864 0 45.7354
11.6931 0 5.65828
8.10544 0 4.15075
-34.2258 0 25.3461
21.6469 0 -56.0035
-20.4677 0 64.021
-16.4747 0 50.3233
-7.34244 0 14.4759
92.3716 0 -46.5692
-65.5092 0 68.2918
-1.69432 0 -10.164
-42.9937 0 -5.33035
-17.1125 0 21.3595
40.926 0 0.194336
-18.4884 0 1.88139
14.9714 0 5.91169
-14.0939 0 13.8396
42.4607 0 9.64765
-33.0163 0 -8.59275
49.1628 0 -69.3638
-24.2491 0 -15.855
9.07462 0 45.9624
-13.4404 0 60.315
-34.211 0 1.53583
1.14849 0 -24.8423
-36.2213 0 -9.56195
32.3719 0 42.3085
-3.8517 0 -3.14694
-49.5368 0 -45.834
-68.7423 0 -38.6369
104.063 0 68.7876
-35.2705 0 -12.9522
-44.562 0 8.46345
-0.833916 0 17.0751
12.9021 0 -7.75768
-12.8132 0 -10.4401
-8.21252 0 6.40278
21.7782 0 -14.0749
34.0934 0 -13.836
16.2737 0 2.64524
65.0777 0 37.6726
-25.5299 0 -17.1948
0.866581 0 32.1742
-2.79185 0 -4.94723
0.412125 0 15.8364
-9.50781 0 12.6417
-0.737873 0 17.6011
-8.21811 0 4.65619
-16.4531 0 13.081
-60.0682 0 53.6211
-13.0641 0 -2.96385
5.24127 0 1.50814
11.9818 0 -2.37113
26.3622 0 6.84829
-69.6597 0 -10.1203
-23.8935 0 7.22799
62.6778 0 -11.1254
-4.50347 0 -15.0835
-10.1015 0 2.70856
-7.114 0 -36.7831
14.8406 0 16.6702
5.06537 0 -9.90298
-19.2397 0 -20.3467
8.17661 0 3.17304
-7.72631 0 3.55776
-42.254 0 -20.6994
20.9975 0 -55.9845
15.8695 0 3.89997
-0.0112734 0 0.244035
115.412 0 -55.9538
5.12553 0 -25.4122
19.8389 0 -21.1167
-6.65421 0 5.05592
-0.910845 0 6.83827
-23.1234 0 5.99088
19.9652 0 -22.6606
30.2759 0 -3.92105
-8.73057 0 4.55683
-17.7337 0 24.8532
-10.2263 0 72.3196
-189.276 0 46.4699
161.209 0 -84.5808
20.4605 0 13.2361
10.461 0 -47.1033
-22.4098 0 -74.0024
-14.9572 0 -49.7427
27.3307 0 2.59031
5.29631 0 -41.817
7.23893 0 27.1199
20.2932 0 35.2797
-14.576 0 -4.1455
8.7154 0 16.1299
8.27181 0 60.5106
7.70803 0 71.3959
1.89119 0 -18.2344
-10.5352 0 22.5155
14.6647 0 -4.67199
-0.117402 0 13.9984
2.70573 0 -5.62978
15.6187 0 0.526977
19.1905 0 18.9459
-30.7444 0 -84.3058
120.286 0 59.9605
-14.2047 0 3.99778
-10.4596 0 -16.791
-8.31226 0 -57.5395
-14.466 0 -9.04573
4.34793 0 -16.4233
-39.5019 0 -1.05644
-9.1711 0 17.1184
-8.986 0 -10.0119
27.0788 0 -0.0954616
-4.83531 0 -13.8015
-2.23635 0 10.9646
5.15771 0 -0.234346
6.80396 0 -2.92041
10.7606 0 -10.4353
6.94444 0 4.15439
-4.94856 0 22.7518
1.22989 0 8.91622
-10.9304 0 -5.81508
-7.47934 0 -22.2824
15.429 0 21.488
1.94864 0 -3.03935
-4.06621 0 0.998884
15.2847 0 4.94938
12.2307 0 89.2309
-39.2405 0 47.8732
-6.76537 0 2.3669
-3.4281 0 -18.2526
5.56988 0 -14.0086
-17.665 0 -3.54519
1.57874 0 -20.9221
-3.61985 0 -40.6664
-49.6595 0 13.4703
-49.1718 0 -148.04
53.894 0 54.4725
-25.0142 0 -1.31682
17.5852 0 -44.8254
4.38297 0 -3.01024
62.3786 0 -46.8045
-19.3384 0 0.393138
3.23183 0 2.74653
3.91247 0 33.8594
-89.0607 0 -3.4803
41.8272 0 40.3836
83.7119 0 64.4341
-6.40029 0 13.4161
-2.94779 0 -17.4085
-2.12303 0 -14.0524
17.8326 0 -11.6846
-94.6605 0 -39.3476
97.8685 0 35.036
-9.76297 0 -33.5848
-16.3031 0 -11.8113
-2.1902 0 -16.9056
12.7584 0 27.6151
-18.9587 0 -3.17126
10.9176 0 -12.8576
-14.6372 0 19.4375
-15.1042 0 -3.5186
36.9015 0 -6.5365
49.2713 0 91.5644
-12.8585 0 44.9605
27.3729 0 17.6145
50.3692 0 24.3262
11.3184 0 -10.5778
2.67374 0 6.95639
2.47967 0 -16.8496
3.02257 0 -3.31431
-31.5708 0 25.9298
-4.24667 0 46.7555
7.91865 0 -9.04827
32.1518 0 -42.6071
-20.5025 0 -6.74503
-0.24342 0 -7.50988
9.34485 0 -8.79717
9.76517 0 7.92209
-15.8507 0 18.4198
-17.05 0 -7.69624
9.55613 0 -4.4692
3.32252 0 -9.87399
13.5202 0 -21.9359
121.683 0 78.5633
-12.1437 0 -25.0499
49.5442 0 -148.449
-21.443 0 -9.04394
25.3008 0 -1.25951
8.9368 0 0.255642
15.3203 0 13.1482
-67.8498 0 -32.5748
41.5618 0 20.5418
28.319 0 -19.2035
1.60045 0 -8.73873
10.2475 0 -3.86896
13.3211 0 80.1785
21.1954 0 -23.0506
41.5388 0 26.6234
-2.84787 0 14.4436
-24.3475 0 -0.857374
-54.6147 0 7.81534
-18.3097 0 18.2496
19.6287 0 0.408365
83.6435 0 -152.105
-15.8659 0 0.57789
-13.634 0 -16.0026
-15.2121 0 -19.9975
35.8622 0 -69.2174
18.4631 0 4.83916
-16.4766 0 14.105
-88.4949 0 -33.8304
-1.29604 0 -37.015
78.2101 0 45.7425
-86.3451 0 -57.827
17.9554 0 -25.7682
88.3051 0 -78.1376
9.68924 0 3.32088
-9.05209 0 -6.42163
9.75342 0 -0.0345788
-61.8363 0 -32.3177
-6.87806 0 -16.6629
4.89435 0 24.4595
-20.1994 0 17.6154
11.0574 0 11.8802
1.20245 0 22.832
4.77869 0 -28.5274
15.0305 0 -35.0992
-15.5282 0 63.5505
20.1128 0 -4.63007
9.29964 0 -15.4565
-81.6162 0 18.8527
32.5355 0 -7.48975
8.01219 0 13.4282
-0.445706 0 11.6204
17.9026 0 12.3802
-5.60274 0 4.76546
-55.5781 0 33.0802
13.7177 0 51.1772
40.0036 0 -47.1215
-59.9895 0 -98.2025
61.1538 0 110.633
-115.445 0 -38.7043
110.551 0 -23.5526
16.9036 0 31.4419
-97.1863 0 106.279
108.426 0 46.4301
11.3456 0 17.2521
8.31921 0 21.871
-15.8977 0 -23.3917
-17.4749 0 20.3071
24.8835 0 55.6689
28.0297 0 31.9669
-10.5935 0 -24.1148
-15.1924 0 16.4028
-16.4623 0 13.7038
6.43535 0 13.334
7.01355 0 9.55972
103.748 0 -104.969
-24.456 0 6.4494
-21.271 0 -23.2951
-50.4928 0 -11.7019
68.5992 0 21.3001
-66.6394 0 141.553
-0.109841 0 7.75872
3.76003 0 -6.30665
7.33432 0 45.4361
11.0798 0 -5.07995
-15.3654 0 79.4247
10.7202 0 3.14475
2.25417 0 5.12146
0.787603 0 -17.054
-17.2468 0 -23.2282
15.8165 0 6.74257
8.15248 0 -10.9895
-1.27093 0 18.9711
-63.684 0 148.128
-23.4045 0 -30.9184
2.67975 0 3.36143
6.71077 0 19.8347
-4.84955 0 -0.702656
-24.5889 0 -29.2678
29.7639 0 5.36616
-7.12766 0 -24.9971
32.5862 0 -59.8896
8.49497 0 1.75073
-41.6789 0 33.5648
-4.07826 0 -16.863
18.0896 0 -5.64412
-40.2886 0 82.3522
-7.48256 0 -30.0784
153.47 0 -59.3032
-12.5581 0 -14.6287
-6.40187 0 3.23772
-7.70015 0 -22.5105
-2.34018 0 7.58357
-8.0807 0 -31.7332
-38.9278 0 -54.9665
-99.2416 0 21.636
-3.6904 0 9.81857
3.40575 0 -11.5906
-2.31663 0 -4.27508
-17.3516 0 -18.9563
33.4677 0 -10.5965
-55.0831 0 -86.2602
19.5302 0 1.45378
10.9432 0 14.5523
-18.4 0 0.793121
36.3504 0 5.82702
-18.062 0 -9.5093
-4.02409 0 -1.58205
3.32482 0 1.05376
-38.2159 0 -9.9124
-70.2799 0 106.943
-88.1024 0 30.8878
34.9488 0 -34.8138
64.1934 0 33.9624
-1.10251 0 12.1168
-49.3402 0 42.4998
-6.29294 0 -0.706101
13.3997 0 -54.8381
6.85501 0 0.757384
56.9482 0 54.4821
-9.11834 0 -17.2328
-14.3236 0 -66.5733
19.886 0 82.8212
-70.31 0 -24.6506
49.7165 0 38.0395
5.09464 0 -2.50273
7.19202 0 -0.334277
-0.469575 0 -10.7106
13.1429 0 7.11757
15.4623 0 24.8912
-37.9575 0 -33.7406
-13.6364 0 13.2075
22.1938 0 69.2843
11.0317 0 -10.9489
-9.82388 0 24.4372
-48.776 0 -58.6614
3.31775 0 -12.3691
5.79631 0 -1.95166
-8.27504 0 4.10431
20.4603 0 -32.6936
-15.7876 0 39.9275
-7.69078 0 5.12014
21.4383 0 38.3329
21.6286 0 1.64142
-13.4556 0 52.629
-6.58494 0 4.52633
9.73137 0 7.18118
40.5736 0 -26.5552
64.5382 0 -22.7347
-11.277 0 -32.1904
48.6107 0 -96.1156
-43.0596 0 -24.1691
-31.7897 0 39.2306
9.39283 0 16.4046
-6.41424 0 -0.0803144
4.45124 0 -12.4515
7.74846 0 11.4523
-11.6714 0 -15.8296
16.4471 0 15.8691
-1.57874 0 -16.6538
-56.0265 0 26.2838
-110.054 0 23.4399
-93.4071 0 -44.6452
12.8951 0 4.4514
1.33256 0 -14.0914
-17.7703 0 10.0703
7.14539 0 -5.95433
-54.476 0 8.54883
-0.0416217 0 9.68683
-0.0664644 0 -5.85528
3.04618 0 -25.7531
6.65701 0 -58.7102
35.6927 0 12.9138
-3.38614 0 -6.69572
-11.0136 0 17.2024
-4.47949 0 -3.04279
-9.5154 0 -1.01117
31.9512 0 -42.3932
8.89772 0 5.01096
-46.3125 0 6.24045
10.1509 0 -43.3057
-27.3309 0 -13.5287
1.83976 0 4.06317
10.6604 0 -5.05398
13.1128 0 -86.9423
-31.5433 0 41.2251
9.89532 0 47.6145
-11.4703 0 -38.3992
42.9422 0 -14.9325
2.72696 0 59.3381
24.2508 0 -7.77197
28.2092 0 39.2379
3.43497 0 -4.48617
-17.2013 0 -20.0079
-20.2448 0 34.7126
2.91445 0 -14.9962
6.71585 0 21.2627
-2.0982 0 2.47852
-12.9798 0 34.4938
4.52822 0 80.6281
32.7474 0 -101.703
-97.8568 0 6.24307
0.990014 0 2.12561
-38.0579 0 -49.5656
-8.99508 0 14.1307
-149.008 0 19.8699
160.328 0 -110.103
-17.3254 0 -6.26339
-75.5145 0 18.2616
20.6357 0 53.7711
-17.6772 0 3.70965
73.1087 0 11.7648
9.93594 0 -9.18282
-2.89803 0 7.72086
1.92154 0 -0.256511
-1.51558 0 -11.1654
13.1787 0 -53.4881
-38.3102 0 38.5806
26.4475 0 2.53585
12.8226 0 10.196
-35.1035 0 9.41499
10.4024 0 -24.2735
28.398 0 -27.1007
-8.25795 0 14.2279
8.05441 0 -7.19227
97.5148 0 -67.6132
9.53106 0 -6.5043
5.81786 0 5.55962
45.8924 0 -34.057
6.61825 0 10.5804
-42.8467 0 -21.8558
6.51798 0 -2.17457
27.4034 0 -6.77511
-11.2986 0 -51.6071
24.3366 0 -14.3754
-7.01593 0 3.98876
4.16015 0 7.27112
-19.1157 0 9.73365
-42.4792 0 24.3197
-9.65048 0 1.71658
66.9403 0 8.22093
25.8794 0 26.8353
-43.8037 0 38.4951
-12.9216 0 27.0299
-1.71232 0 10.7453
-39.6858 0 1.1791
-9.35642 0 13.0753
-20.6334 0 -6.30645
5.62725 0 29.1621
-6.69792 0 -16.0293
-31.778 0 3.05377
73.7689 0 41.5479
37.9789 0 4.62682
-3.24281 0 -19.2451
13.4422 0 -9.1521
50.8814 0 52.1418
-6.31152 0 11.2022
45.7758 0 -86.4956
-27.6136 0 -0.799093
-3.86293 0 14.9887
-4.67604 0 58.4375
-22.5005 0 20.4339
-10.6644 0 6.09986
-100.063 0 107.01
12.7386 0 -14.2071
-3.24947 0 89.6295
5.54681 0 5.60435
3.04678 0 -1.23208
5.80315 0 -20.7007
9.86791 0 29.2623
9.04621 0 3.63288
15.4326 0 18.8732
3.62267 0 -12.6012
7.03052 0 10.6339
-39.5792 0 -5.87161
-6.91003 0 9.15723
6.04964 0 -56.4139
-2.61003 0 -0.125856
7.46799 0 67.4133
17.2706 0 3.73662
-18.8152 0 11.8209
-92.8748 0 -25.3965
-4.46767 0 9.45559
1.64266 0 -1.00734
22.1866 0 36.2713
-98.2646 0 -7.68788
-10.8278 0 9.28391
-19.0445 0 72.9788
50.4784 0 -63.2157
3.82987 0 26.885
4.9014 0 2.32879
-8.25558 0 10.1771
-26.8013 0 41.0695
13.3821 0 9.61027
-18.1269 0 56.7201
12.0406 0 15.5933
18.1543 0 -3.31675
24.0076 0 2.57164
0.223385 0 2.84713
-14.7193 0 18.4753
-29.2746 0 -36.3473
5.01006 0 1.17107
8.53394 0 17.2833
13.5459 0 -5.24206
-4.34137 0 -14.401
-5.23641 0 -10.6938
31.0477 0 -18.3536
-1.14847 0 -11.6933
-16.1515 0 0.863717
-3.29188 0 14.211
5.93646 0 -16.9745
-22.7579 0 -62.4052
-56.9274 0 -55.3698
-42.6367 0 46.8559
28.1617 0 28.2031
3.92443 0 16.6168
4.87127 0 -16.37
-70.9423 0 72.7309
6.4005 0 14.9521
16.7243 0 -3.52065
14.7849 0 18.9293
4.75306 0 -6.73667
-14.3767 0 -31.8998
6.42319 0 21.6491
36.2062 0 -135.489
-22.5724 0 -4.91208
31.3048 0 -30.7936
-15.7641 0 16.6939
-8.95133 0 5.83628
-1.72941 0 6.61946
-16.9337 0 -4.45478
10.5878 0 -30.475
55.0098 0 -7.38338
18.248 0 -1.11074
-9.98834 0 19.866
-26.6871 0 10.1993
61.8707 0 27.4568
-17.3867 0 -5.65511
47.6056 0 12.9863
73.8683 0 -8.50426
43.5227 0 6.43871
35.4223 0 84.3419
12.4042 0 32.4497
-10.5019 0 1.65292
-12.5605 0 -8.84536
-9.09172 0 44.48
-1.52067 0 -20.8923
-31.4361 0 36.0464
34.6235 0 -48.1962
-18.9485 0 12.8327
-32.0359 0 -32.0801
9.65981 0 17.8569
-25.466 0 -17.7447
1.85615 0 1.71744
-8.04232 0 -4.31759
-13.5178 0 6.58614
7.85121 0 -9.09381
11.5375 0 -0.701671
13.8457 0 -1.44628
1.13846 0 -26.178
-37.0963 0 7.84225
39.0418 0 17.4462
-64.3533 0 22.0638
33.0859 0 -21.1972
19.3299 0 -67.9325
0.682123 0 14.5016
-79.6068 0 0.888855
2.82484 0 -9.41681
49.8655 0 19.4241
-15.1186 0 -6.69967
6.41512 0 18.1268
-12.3108 0 5.55064
43.2715 0 3.32069
-10.4103 0 -6.56929
44.0638 0 -45.5996
4.24072 0 18.2013
4.31823 0 12.7784
-20.3638 0 -4.94861
17.8465 0 -32.9061
12.2339 0 -9.28312
-5.0378 0 -9.93116
-21.6814 0 -4.69329
26.6272 0 33.7143
29.169 0 75.9479
-9.43223 0 -2.46982
2.14964 0 9.85362
-15.2038 0 1.76513
-2.30079 0 4.91288
-9.70493 0 -9.80003
7.64709 0 11.5514
11.0102 0 -15.2538
5.92342 0 19.7086
18.2097 0 17.8647
9.24294 0 1.04726
-22.9026 0 30.8683
48.5635 0 -3.84672
0.355673 0 7.80129
1.73186 0 13.6286
-4.7404 0 14.6409
33.6075 0 -6.9976
134.952 0 20.285
-12.0095 0 -12.7282
108.713 0 -39.6534
113.068 0 -42.1552
0.711958 0 -2.32412
49.6871 0 8.95294
25.0976 0 -41.926
-3.69766 0 -0.0430909
8.39987 0 3.5002
-18.3279 0 -12.7142
-1.47148 0 -2.46051
18.5441 0 -16.0909