# vtk DataFile Version 3.0
SiWiRVisFile
ASCII
DATASET UNSTRUCTURED_GRID
POINTS 1600 DOUBLE
79.2006 100 76.241
80.3031 100 76.5622
81.3547 100 76.8821
82.5681 100 76.6321
83.6789 100 76.7923
84.7576 100 76.7946
85.8452 100 76.7529
86.9361 100 76.7158
87.9882 100 76.6891
89.0767 100 76.6809
90.1995 100 76.6757
91.3582 100 76.6421
92.5303 100 76.5961
93.693 100 76.5652
94.8415 100 76.5488
95.9794 100 76.5438
97.1102 100 76.5408
98.2355 100 76.5363
99.3634 100 76.5326
100.509 100 76.5351
101.624 100 75.3621
102.709 100 76.1968
103.843 100 75.8237
104.971 100 75.8528
106.088 100 75.8241
107.205 100 75.8025
108.324 100 75.7822
109.443 100 75.7669
110.564 100 75.7602
111.685 100 75.7575
112.807 100 75.7575
113.928 100 75.7602
115.049 100 75.7669
116.169 100 75.7822
117.287 100 75.8025
118.405 100 75.8241
119.522 100 75.8528
120.649 100 75.8237
121.783 100 76.1968
122.868 100 75.3621
123.984 100 76.5351
125.129 100 76.5326
126.257 100 76.5363
127.382 100 76.5408
128.513 100 76.5438
129.651 100 76.5488
130.799 100 76.5652
131.962 100 76.5961
133.134 100 76.6421
134.293 100 76.6757
135.416 100 76.6809
136.504 100 76.6891
137.556 100 76.7158
138.647 100 76.7529
139.735 100 76.7946
140.814 100 76.7923
141.924 100 76.6321
143.138 100 76.8821
144.189 100 76.5622
145.292 100 76.241
79.5214 100 77.342
80.6065 100 77.6476
82.1048 100 77.6369
83.1505 100 77.7645
84.2092 100 77.7426
85.3189 100 77.717
86.4425 100 77.7317
87.564 100 77.7454
88.6719 100 77.7135
89.783 100 77.6461
90.8733 100 77.6121
91.9361 100 77.6202
92.9646 100 77.6285
93.9921 100 77.6373
95.0075 100 77.6403
96.0365 100 77.6429
97.0668 100 77.6425
98.1492 100 77.6385
99.2849 100 77.6348
100.437 100 77.6461
101.413 100 76.8751
102.579 100 77.3802
103.734 100 77.3061
104.881 100 77.3121
106.017 100 77.2644
107.15 100 77.1994
108.284 100 77.127
109.418 100 77.0724
110.551 100 77.039
111.682 100 77.017
112.811 100 77.017
113.941 100 77.039
115.074 100 77.0724
116.208 100 77.127
117.342 100 77.1994
118.476 100 77.2644
119.611 100 77.3121
120.758 100 77.3061
121.914 100 77.3802
123.08 100 76.8751
124.055 100 77.6461
125.208 100 77.6348
126.343 100 77.6385
127.426 100 77.6425
128.456 100 77.6429
129.485 100 77.6403
130.5 100 77.6373
131.528 100 77.6285
132.556 100 77.6202
133.619 100 77.6121
134.709 100 77.6461
135.821 100 77.7135
136.928 100 77.7454
138.05 100 77.7317
139.173 100 77.717
140.283 100 77.7426
141.342 100 77.7645
142.388 100 77.6369
143.886 100 77.6476
144.971 100 77.342
79.8251 100 78.3807
80.6036 100 79.0788
81.4118 100 78.4153
82.4754 100 78.721
83.6029 100 78.7132
84.6917 100 78.7348
85.8377 100 78.7356
86.9915 100 78.6947
88.132 100 78.6362
89.2849 100 78.6352
90.4457 100 78.6636
91.6015 100 78.7005
92.7544 100 78.7249
93.8967 100 78.7367
95.0174 100 78.7367
96.1165 100 78.7331
97.2154 100 78.7296
98.3236 100 78.7265
99.4393 100 78.7227
100.476 100 78.6846
101.861 100 78.0658
102.866 100 78.5109
103.966 100 78.246
105.07 100 78.249
106.179 100 78.2059
107.286 100 78.1869
108.392 100 78.1774
109.496 100 78.1705
110.597 100 78.1657
111.697 100 78.1564
112.796 100 78.1564
113.895 100 78.1657
114.997 100 78.1705
116.1 100 78.1774
117.206 100 78.1869
118.314 100 78.2059
119.423 100 78.249
120.527 100 78.246
121.627 100 78.5109
122.631 100 78.0658
124.017 100 78.6846
125.053 100 78.7227
126.169 100 78.7265
127.277 100 78.7296
128.376 100 78.7331
129.475 100 78.7367
130.596 100 78.7367
131.738 100 78.7249
132.891 100 78.7005
134.047 100 78.6636
135.208 100 78.6352
136.36 100 78.6362
137.501 100 78.6947
138.655 100 78.7356
139.801 100 78.7348
140.889 100 78.7132
142.017 100 78.721
143.081 100 78.4153
143.889 100 79.0788
144.667 100 78.3807
79.6003 100 79.5667
80.7188 100 80.1167
81.6863 100 79.4645
82.7914 100 79.8238
83.895 100 79.7748
85.0017 100 79.7694
86.0987 100 79.7365
87.19 100 79.7187
88.2804 100 79.7381
89.3625 100 79.7664
90.439 100 79.7848
91.5184 100 79.802
92.5933 100 79.807
93.6815 100 79.806
94.7855 100 79.8008
95.8785 100 79.7992
96.9891 100 79.8006
98.1262 100 79.7999
99.2827 100 79.7975
100.466 100 79.835
101.409 100 79.2586
102.509 100 79.5329
103.641 100 79.2797
104.815 100 79.3001
105.968 100 79.2981
107.112 100 79.2971
108.249 100 79.2907
109.383 100 79.2515
110.523 100 79.2041
111.67 100 79.1271
112.823 100 79.1271
113.969 100 79.2041
115.109 100 79.2515
116.243 100 79.2907
117.381 100 79.2971
118.524 100 79.2981
119.677 100 79.3001
120.851 100 79.2797
121.984 100 79.5329
123.083 100 79.2586
124.027 100 79.835
125.21 100 79.7975
126.366 100 79.7999
127.503 100 79.8006
128.614 100 79.7992
129.707 100 79.8008
130.811 100 79.806
131.899 100 79.807
132.974 100 79.802
134.053 100 79.7848
135.13 100 79.7664
136.212 100 79.7381
137.302 100 79.7187
138.394 100 79.7365
139.491 100 79.7694
140.597 100 79.7748
141.701 100 79.8238
142.806 100 79.4645
143.774 100 80.1167
144.892 100 79.5667
79.7362 100 80.65
80.7142 100 81.1415
81.6991 100 80.558
82.7821 100 80.9051
83.8272 100 80.808
84.9544 100 80.8051
86.0938 100 80.8102
87.2236 100 80.8241
88.3442 100 80.8443
89.4574 100 80.8614
90.5732 100 80.868
91.6816 100 80.8739
92.7836 100 80.8715
93.8919 100 80.8686
94.9968 100 80.8658
96.0852 100 80.8674
97.1824 100 80.8705
98.301 100 80.87
99.4432 100 80.8659
100.565 100 80.8929
101.721 100 80.2993
102.844 100 80.4744
103.931 100 80.3811
105.042 100 80.4037
106.144 100 80.4
107.249 100 80.3985
108.363 100 80.3093
109.481 100 80.1807
110.594 100 80.1498
111.698 100 80.1274
112.795 100 80.1274
113.899 100 80.1498
115.011 100 80.1807
116.129 100 80.3093
117.244 100 80.3985
118.348 100 80.4
119.45 100 80.4037
120.561 100 80.3811
121.648 100 80.4744
122.771 100 80.2993
123.927 100 80.8929
125.049 100 80.8659
126.191 100 80.87
127.31 100 80.8705
128.407 100 80.8674
129.496 100 80.8658
130.6 100 80.8686
131.709 100 80.8715
132.811 100 80.8739
133.919 100 80.868
135.035 100 80.8614
136.148 100 80.8443
137.269 100 80.8241
138.399 100 80.8102
139.538 100 80.8051
140.665 100 80.808
141.71 100 80.9051
142.793 100 80.558
143.778 100 81.1415
144.756 100 80.65
79.7375 100 81.7101
80.7021 100 82.1695
81.7061 100 81.6243
82.7208 100 81.9943
83.8061 100 81.8951
84.944 100 81.9129
86.0668 100 81.9282
87.1771 100 81.9382
88.2793 100 81.9502
89.3726 100 81.9587
90.4684 100 81.9586
91.5627 100 81.9596
92.6524 100 81.9565
93.7528 100 81.9548
94.8562 100 81.9533
95.9459 100 81.9549
97.0507 100 81.9573
98.1867 100 81.9568
99.3543 100 81.9524
100.548 100 81.9978
101.51 100 81.3916
102.55 100 81.5714
103.718 100 81.4658
104.892 100 81.4942
106.042 100 81.4863
107.182 100 81.4775
108.306 100 81.2696
109.427 100 81.2406
110.554 100 81.2351
111.681 100 81.1844
112.811 100 81.1844
113.938 100 81.2351
115.065 100 81.2406
116.186 100 81.2696
117.31 100 81.4775
118.45 100 81.4863
119.6 100 81.4942
120.774 100 81.4658
121.943 100 81.5714
122.982 100 81.3916
123.944 100 81.9978
125.138 100 81.9524
126.306 100 81.9568
127.442 100 81.9573
128.546 100 81.9549
129.636 100 81.9533
130.74 100 81.9548
131.84 100 81.9565
132.93 100 81.9596
134.024 100 81.9586
135.12 100 81.9587
136.213 100 81.9502
137.315 100 81.9382
138.426 100 81.9282
139.548 100 81.9129
140.686 100 81.8951
141.772 100 81.9943
142.786 100 81.6243
143.79 100 82.1695
144.755 100 81.7101
79.6649 100 82.7623
80.6828 100 83.2221
81.674 100 82.7265
82.6901 100 83.0786
83.8332 100 83.0124
84.97 100 83.0275
86.0896 100 83.0375
87.2009 100 83.0421
88.3071 100 83.0477
89.4068 100 83.0511
90.5115 100 83.0486
91.6132 100 83.0487
92.7112 100 83.0469
93.8198 100 83.0465
94.9259 100 83.0455
96.0178 100 83.0468
97.124 100 83.0476
98.2606 100 83.0456
99.4266 100 83.0382
100.565 100 83.0714
101.558 100 82.464
102.7 100 82.5852
103.813 100 82.533
104.952 100 82.5607
106.083 100 82.5141
107.213 100 82.4769
108.329 100 82.3472
109.447 100 82.3302
110.57 100 82.3123
111.688 100 82.1129
112.805 100 82.1129
113.923 100 82.3123
115.045 100 82.3302
116.164 100 82.3472
117.28 100 82.4769
118.409 100 82.5141
119.541 100 82.5607
120.679 100 82.533
121.792 100 82.5852
122.935 100 82.464
123.928 100 83.0714
125.066 100 83.0382
126.232 100 83.0456
127.368 100 83.0476
128.475 100 83.0468
129.567 100 83.0455
130.673 100 83.0465
131.781 100 83.0469
132.879 100 83.0487
133.981 100 83.0486
135.086 100 83.0511
136.185 100 83.0477
137.291 100 83.0421
138.403 100 83.0375
139.522 100 83.0275
140.659 100 83.0124
141.802 100 83.0786
142.818 100 82.7265
143.81 100 83.2221
144.828 100 82.7623
79.6478 100 83.8543
80.6462 100 84.2723
81.658 100 83.8499
82.7273 100 84.1572
83.8575 100 84.11
84.979 100 84.1206
86.0892 100 84.1261
87.1948 100 84.1274
88.2976 100 84.1295
89.395 100 84.1304
90.4976 100 84.1282
91.5973 100 84.1286
92.693 100 84.1281
93.7994 100 84.1282
94.9033 100 84.1274
95.9937 100 84.1284
97.1022 100 84.1281
98.2449 100 84.1252
99.4195 100 84.1159
100.542 100 84.135
101.558 100 83.5597
102.637 100 83.5391
103.774 100 83.5284
104.926 100 83.5384
106.069 100 83.475
107.206 100 83.4808
108.319 100 83.423
109.444 100 83.4032
110.571 100 83.2854
111.685 100 83.161
112.807 100 83.161
113.922 100 83.2854
115.049 100 83.4032
116.174 100 83.423
117.287 100 83.4808
118.423 100 83.475
119.566 100 83.5384
120.719 100 83.5284
121.855 100 83.5391
122.934 100 83.5597
123.95 100 84.135
125.073 100 84.1159
126.248 100 84.1252
127.39 100 84.1281
128.499 100 84.1284
129.589 100 84.1274
130.693 100 84.1282
131.799 100 84.1281
132.895 100 84.1286
133.995 100 84.1282
135.097 100 84.1304
136.195 100 84.1295
137.298 100 84.1274
138.403 100 84.1261
139.513 100 84.1206
140.635 100 84.11
141.765 100 84.1572
142.834 100 83.8499
143.846 100 84.2723
144.845 100 83.8543
79.6427 100 84.8818
80.6418 100 85.2935
81.6983 100 85.0136
82.7814 100 85.2368
83.888 100 85.2041
84.9932 100 85.2102
86.094 100 85.2127
87.1952 100 85.2124
88.2966 100 85.2126
89.3947 100 85.2123
90.4988 100 85.2108
91.5993 100 85.2111
92.6958 100 85.211
93.8032 100 85.2111
94.9071 100 85.2103
95.9991 100 85.2106
97.1114 100 85.2098
98.2598 100 85.2063
99.4315 100 85.1981
100.532 100 85.1813
101.568 100 84.6374
[...]
POINT_DATA 1600
SCALARS mass double
LOOKUP_TABLE default
1
1
1
1
1
1
1
1
1
1
1
1
1
1
1
1
1
1
1
1
1
1
1
1
1
1
1
1
1
1
1
1
1
1
1
1
1
1
1
1
1
1
1
1
1
1
1
1
1
1
1
1
1
1
1
1
1
1
1
1
1
1
1
1
1
1
1
1
1
1
1
1
1
1
1
1
1
1
1
1
1
1
1
1
1
1
1
1
1
1
1
1
1
1
1
1
1
1
1
1
1
1
1
1
1
1
1
1
1
1
1
1
1
1
1
1
1
1
1
1
1
1
1
1
1
1
1
1
1
1
1
1
1
1
1
1
1
1
1
1
1
1
1
1
1
1
1
1
1
1
1
1
1
1
1
1
1
1
1
1
1
1
1
1
1
1
1
1
1
1
1
1
1
1
1
1
1
1
1
1
1
1
1
1
1
1
1
1
1
1
1
1
1
1
1
1
1
1
1
1
1
1
1
1
1
1
1
1
1
1
1
1
1
1
1
1
1
1
1
1
1
1
1
1
1
1
1
1
1
1
1
1
1
1
1
1
1
1
1
1
1
1
1
1
1
1
1
1
1
1
1
1
1
1
1
1
1
1
1
1
1
1
1
1
1
1
1
1
1
1
1
1
1
1
1
1
1
1
1
1
1
1
1
1
1
1
1
1
1
1
1
1
1
1
1
1
1
1
1
1
1
1
1
1
1
1
1
1
1
1
1
1
1
1
1
1
1
1
1
1
1
1
1
1
1
1
1
1
1
1
1
1
1
1
1
1
1
1
1
1
1
1
1
1
1
1
1
1
1
1
1
1
1
1
1
1
1
1
1
1
1
1
1
1
1
1
1
1
1
1
1
1
1
1
1
1
1
1
1
1
1
1
1
1
1
1
1
1
1
1
1
1
1
1
1
1
1
1
1
1
1
1
1
1
1
1
1
1
1
1
1
1
1
1
1
1
1
1
1
1
1
1
1
1
1
1
1
1
1
1
1
1
1
1
1
1
1
1
1
1
1
1
1
1
1
1
1
1
1
1
1
1
1
1
1
1
1
1
1
1
1
1
1
1
1
1
1
1
1
1
1
1
1
1
1
1
1
1
1
1
1
1
1
1
1
1
1
1
1
1
1
1
1
1
1
1
1
1
1
1
1
1
1
1
1
1
1
1
1
1
1
1
1
1
1
1
1
1
1
1
1
1
1
1
1
1
1
1
1
1
1
1
1
1
1
1
1
1
1
1
1
1
1
1
1
1
1
1
1
1
1
1
1
1
1
1
1
1
1
1
1
1
1
1
1
1
1
1
1
1
1
1
1
1
1
1
1
1
1
1
1
1
1
1
1
1
1
1
1
1
1
1
1
1
1
1
1
1
1
1
1
1
1
1
1
1
1
1
1
1
1
1
1
1
1
1
1
1
1
1
1
1
1
1
1
1
1
1
1
1
1
1
1
1
1
1
1
1
1
1
1
1
1
1
1
1
1
1
1
1
1
1
1
1
1
1
1
1
1
1
1
1
1
1
1
1
1
1
1
1
1
1
1
1
1
1
1
1
1
1
1
1
1
1
1
1
1
1
1
1
1
1
1
1
1
1
1
1
1
1
1
1
1
1
1
1
1
1
1
1
1
1
1
1
1
1
1
1
1
1
1
1
1
1
1
1
1
1
1
1
1
1
1
1
1
1
1
1
1
1
1
1
1
1
1
1
1
1
1
1
1
1
1
1
1
1
1
1
1
1
1
1
1
1
1
1
1
1
1
1
1
1
1
1
1
1
1
1
1
1
1
1
1
1
1
1
1
1
1
1
1
1
1
1
1
1
1
1
1
1
1
1
1
1
1
1
1
1
1
1
1
1
1
1
1
1
1
1
1
1
1
1
1
1
1
1
1
1
1
1
1
1
1
1
1
1
1
1
1
1
1
1
1
1
1
1
1
1
1
1
1
1
1
1
1
1
1
1
1
1
1
1
1
1
1
1
1
1
1
1
1
1
1
1
1
1
1
1
1
1
1
1
1
1
1
1
1
1
1
1
1
1
1
1
1
1
1
1
1
1
1
1
1
1
1
1
1
1
1
1
1
1
1
1
1
1
1
1
1
1
1
1
1
1
1
1
1
1
1
1
1
1
1
1
1
1
1
1
1
1
1
1
1
1
1
1
1
1
1
1
1
1
1
1
1
1
1
1
1
1
1
1
1
1
1
1
1
1
1
1
1
1
1
1
1
1
1
1
1
1
1
1
1
1
1
1
1
1
1
1
1
1
1
1
1
1
1
1
1
1
1
1
1
1
1
1
1
1
1
1
1
1
1
1
1
1
1
1
1
1
1
1
1
1
1
1
1
1
1
1
1
1
1
1
1
1
1
1
1
1
1
1
1
1
1
1
1
1
1
1
1
1
1
1
1
1
1
1
1
1
1
1
1
1
1
1
1
1
1
1
1
1
1
1
1
1
1
1
1
1
1
1
1
1
1
1
1
1
1
1
1
1
1
1
1
1
1
1
1
1
1
1
1
1
1
1
1
1
1
1
1
1
1
1
1
1
1
1
1
1
1
1
1
1
1
1
1
1
1
1
1
1
1
1
1
1
1
1
1
1
1
1
1
1
1
1
1
1
1
1
1
1
1
1
1
1
1
1
1
1
1
1
1
1
1
1
1
1
1
1
1
1
1
1
1
1
1
1
1
1
1
1
1
1
1
1
1
1
1
1
1
1
1
1
1
1
1
1
1
1
1
1
1
1
1
1
1
1
1
1
1
1
1
1
1
1
1
1
1
1
1
1
1
1
1
1
1
1
1
1
1
1
1
1
1
1
1
1
1
1
1
1
1
1
1
1
1
1
1
1
1
1
1
1
1
1
1
1
1
1
1
1
1
1
1
1
1
1
1
1
1
1
1
1
1
1
1
1
1
1
1
1
1
1
1
1
1
1
1
1
1
1
1
1
1
1
1
1
1
1
1
1
1
1
1
1
1
1
1
1
1
1
1
1
1
1
1
1
1
1
1
1
1
1
1
1
1
1
1
1
1
1
1
1
1
1
1
1
1
1
1
1
1
1
1
1
1
1
1
1
1
1
1
1
1
1
1
1
1
1
1
1
1
1
1
1
1
1
1
1
1
1
1
1
1
1
1
1
1
1
1
1
1
1
1
1
1
1
1
1
1
1
1
1
1
1
1
1
1
1
1
1
1
1
1
1
1
1
1
1
1
1
1
1
1
1
1
1
1
1
1
1
1
1
1
1
1
1
1
1
1
1
1
1
1
1
1
1
1
1
1
1
1
1
1
1
1
1
1
1
1
1
1
1
1
1
1
1
1
1
1
1
1
1
1
1
1
1
1
1
1
1
1
1
1
1
1
1
1
1
1
1
1
1
1
1
1
1
1
1
1
1
1
1
1
1
1
1
1
1
1
1
1
1
1
1
1
1
1
1
1
1
1
1
1
1
1
1
1
1
1
1
1
1
1
1
1
1
1
1
1
1
1
1
1
1
1
1
1
1
1
1
1
1
1
1
1
1
1
1
1
1
1
1
1
1
1
1
1
1
1
1
1
1
1
1
1
1
1
1
1
1
1
1
1
1
1
1
1
1
1
1
1
1
1
1
1
1
1
1
1
1
1
1
1
1
1
1
1
1
VECTORS force double
8.31282 0 8.15425
-7.86059 0 -5.11773
15.5415 0 -31.4605
-3.91445 0 10.2438
-23.3648 0 -13.0054
0.856573 0 -20.7914
8.4776 0 -0.277673
-22.8054 0 14.6923
30.767 0 15.5418
20.8202 0 7.5904
25.0224 0 -25.1644
10.131 0 -8.5587
-5.89795 0 10.7756
-8.00609 0 9.59927
-6.0747 0 4.42907
-3.17504 0 1.72741
-0.781927 0 1.83522
2.03306 0 1.91662
5.43994 0 0.929246
-213.564 0 -80.586
4.67262 0 13.9351
-0.462775 0 9.99161
-8.70808 0 11.7619
-2.74982 0 9.66732
0.398609 0 10.2248
0.659634 0 11.7504
0.830514 0 13.555
0.679409 0 14.9096
0.490631 0 15.7711
0.194974 0 16.1789
-0.194974 0 16.1789
-0.490631 0 15.7711
-0.679409 0 14.9096
-0.830514 0 13.555
-0.659634 0 11.7504
-0.398609 0 10.2248
2.74982 0 9.66732
8.70808 0 11.7619
0.462775 0 9.99161
-4.67262 0 13.9351
213.564 0 -80.586
-5.43994 0 0.929246
-2.03306 0 1.91662
0.781927 0 1.83522
3.17504 0 1.72741
6.0747 0 4.42907
8.00609 0 9.59927
5.89795 0 10.7756
-10.131 0 -8.5587
-25.0224 0 -25.1644
-20.8202 0 7.5904
-30.767 0 15.5418
22.8054 0 14.6923
-8.4776 0 -0.277673
-0.856573 0 -20.7914
23.3648 0 -13.0054
3.91445 0 10.2438
-15.5415 0 -31.4605
7.86059 0 -5.11773
-8.31282 0 8.15425
-7.31128 0 -15.7787
2.53121 0 5.57191
11.5601 0 -9.64026
-25.1172 0 -28.2642
25.9228 0 19.5099
6.29859 0 37.6905
-9.06214 0 -1.49784
-25.1531 0 -45.9639
3.84953 0 -31.1337
-21.2777 0 30.7207
-24.4255 0 20.8473
-30.4998 0 -1.42792
7.90626 0 -3.86626
-11.964 0 -4.28199
25.2131 0 -2.60117
0.883115 0 -1.23192
43.3896 0 0.162959
13.8433 0 0.680115
-1.69647 0 0.13101
-0.860972 0 -53.6048
220.734 0 95.0033
102.457 0 -101.149
-57.0442 0 -211.368
-59.3838 0 -259.736
-49.2657 0 -264.534
-19.9337 0 -127.614
-5.96187 0 -40.9447
-2.25823 0 -14.8397
-1.11353 0 -7.0662
-0.365247 0 -4.72554
0.365247 0 -4.72554
1.11353 0 -7.0662
2.25823 0 -14.8397
5.96187 0 -40.9447
19.9337 0 -127.614
49.2657 0 -264.534
59.3838 0 -259.736
57.0442 0 -211.368
-102.457 0 -101.149
-220.734 0 95.0033
0.860972 0 -53.6048
1.69647 0 0.13101
-13.8433 0 0.680115
-43.3896 0 0.162959
-0.883115 0 -1.23192
-25.2131 0 -2.60117
11.964 0 -4.28199
-7.90626 0 -3.86626
30.4998 0 -1.42792
24.4255 0 20.8473
21.2777 0 30.7207
-3.84953 0 -31.1337
25.1531 0 -45.9639
9.06214 0 -1.49784
-6.29859 0 37.6905
-25.9228 0 19.5099
25.1172 0 -28.2642
-11.5601 0 -9.64026
-2.53121 0 5.57191
7.31128 0 -15.7787
-43.3496 0 12.196
2.7105 0 8.4304
-7.53012 0 -10.0155
23.5206 0 -15.2884
-0.814745 0 31.8351
15.9676 0 -12.2063
-16.3202 0 -62.0608
-15.6455 0 -33.4634
4.68176 0 54.5486
0.191332 0 16.5318
-5.5897 0 -8.25666
-3.0651 0 -11.8366
-1.15458 0 -10.1351
-0.850685 0 -5.58659
-0.406839 0 -2.68761
8.6578 0 0.0439617
12.8088 0 -1.199
11.4666 0 -4.77646
-46.7801 0 -4.6013
50.1335 0 50.0823
-124.318 0 95.7781
6.52709 0 -31.2281
58.3218 0 193.515
67.388 0 245.781
51.2116 0 261.271
20.9058 0 125.983
6.28578 0 37.0087
4.5989 0 -4.74692
6.16123 0 -50.1657
6.65254 0 -205.437
-6.65254 0 -205.437
-6.16123 0 -50.1657
-4.5989 0 -4.74692
-6.28578 0 37.0087
-20.9058 0 125.983
-51.2116 0 261.271
-67.388 0 245.781
-58.3218 0 193.515
-6.52709 0 -31.2281
124.318 0 95.7781
-50.1335 0 50.0823
46.7801 0 -4.6013
-11.4666 0 -4.77646
-12.8088 0 -1.199
-8.6578 0 0.0439616
0.406839 0 -2.68761
0.850685 0 -5.58659
1.15458 0 -10.1351
3.0651 0 -11.8366
5.5897 0 -8.25666
-0.191332 0 16.5318
-4.68176 0 54.5486
15.6455 0 -33.4634
16.3202 0 -62.0608
-15.9676 0 -12.2063
0.814745 0 31.8351
-23.5206 0 -15.2884
7.53012 0 -10.0155
-2.7105 0 8.4304
43.3496 0 12.196
11.9131 0 -16.1952
-14.6333 0 -44.5296
-12.3849 0 20.5697
-13.9421 0 -21.4639
13.6063 0 -54.5401
9.89561 0 -42.2345
16.7264 0 32.8635
10.6732 0 40.4162
-3.92454 0 -2.09093
-5.11777 0 -9.95031
-1.59352 0 -9.2526
-9.3445 0 -6.77503
-2.34019 0 -4.43253
-5.27736 0 -2.853
-18.0517 0 -1.79294
-5.80085 0 -2.53749
-5.01846 0 -4.18838
-8.07076 0 -4.29171
-7.01151 0 -4.13118
-15.8647 0 -28.6369
18.1982 0 -22.5267
-34.5406 0 -107.948
4.34487 0 34.1352
-15.2842 0 16.1673
-9.67686 0 -0.366308
-6.30662 0 -4.6152
-10.7976 0 -71.4747
-43.1164 0 -369.914
-27.4763 0 -250.493
-9.38805 0 85.2041
9.38805 0 85.2041
27.4763 0 -250.493
43.1164 0 -369.914
10.7976 0 -71.4747
6.30662 0 -4.6152
9.67686 0 -0.366308
15.2842 0 16.1673
-4.34487 0 34.1352
34.5406 0 -107.948
-18.1982 0 -22.5267
15.8647 0 -28.6369
7.01151 0 -4.13118
8.07076 0 -4.29171
5.01846 0 -4.18838
5.80085 0 -2.53749
18.0517 0 -1.79294
5.27736 0 -2.853
2.34019 0 -4.43253
9.3445 0 -6.77503
1.59352 0 -9.2526
5.11777 0 -9.95031
3.92454 0 -2.09093
-10.6732 0 40.4162
-16.7264 0 32.8635
-9.89561 0 -42.2345
-13.6063 0 -54.5401
13.9421 0 -21.4639
12.3849 0 20.5697
14.6333 0 -44.5296
-11.9131 0 -16.1952
-5.39683 0 -24.9333
7.85492 0 5.40015
26.6709 0 -9.36897
-47.8587 0 15.8938
38.108 0 37.6292
-1.19032 0 49.9185
-2.35321 0 19.4721
-0.842137 0 2.39863
1.16216 0 -0.391737
5.98784 0 0.430294
4.69933 0 1.196
6.74964 0 3.39407
12.6231 0 4.72819
9.22974 0 4.6714
2.92098 0 3.96041
13.8884 0 2.9399
16.7168 0 2.82754
13.7353 0 3.2933
2.86259 0 3.60406
-13.1141 0 7.81495
-14.0872 0 23.0582
31.8262 0 120.743
14.6751 0 -13.3951
2.95115 0 -8.88079
7.39473 0 -10.1516
13.145 0 -10.9813
30.3674 0 -166.554
41.3326 0 352.051
21.3955 0 287.43
1.62084 0 81.6845
-1.62084 0 81.6845
-21.3955 0 287.43
-41.3326 0 352.051
-30.3674 0 -166.554
-13.145 0 -10.9813
-7.39473 0 -10.1516
-2.95115 0 -8.88079
-14.6751 0 -13.3951
-31.8262 0 120.743
14.0872 0 23.0582
13.1141 0 7.81495
-2.86259 0 3.60406
-13.7353 0 3.2933
-16.7168 0 2.82754
-13.8884 0 2.9399
-2.92098 0 3.96041
-9.22974 0 4.6714
-12.6231 0 4.72819
-6.74964 0 3.39407
-4.69933 0 1.196
-5.98784 0 0.430294
-1.16216 0 -0.391737
0.842137 0 2.39863
2.35321 0 19.4721
1.19032 0 49.9185
-38.108 0 37.6292
47.8587 0 15.8938
-26.6709 0 -9.36897
-7.85492 0 5.40015
5.39683 0 -24.9333
-15.6157 0 -16.4581
18.8981 0 42.3686
-6.44849 0 14.1117
-1.06415 0 11.0312
13.1947 0 7.60233
-4.77431 0 2.14557
-4.7936 0 -2.4093
-4.14352 0 -3.44269
-5.65504 0 -3.49753
-1.5966 0 -2.96228
-4.38626 0 -2.26683
-7.0328 0 -1.20361
-0.654421 0 -1.07161
-4.34724 0 -1.31392
-11.7126 0 -1.73061
0.873848 0 -1.76197
3.26516 0 -1.68278
-0.592498 0 -1.51275
-1.66638 0 -1.54624
-15.9488 0 -18.7508
-14.6444 0 -12.1825
28.618 0 -65.6272
-10.0848 0 -20.347
-8.65023 0 -18.2652
-7.25546 0 -55.0198
-4.4332 0 -101.292
-22.9778 0 217.619
-3.54422 0 16.7038
1.00368 0 -4.2921
-1.30397 0 -392.047
1.30397 0 -392.047
-1.00368 0 -4.2921
3.54422 0 16.7038
22.9778 0 217.619
4.4332 0 -101.292
7.25546 0 -55.0198
8.65023 0 -18.2652
10.0848 0 -20.347
-28.618 0 -65.6272
14.6444 0 -12.1825
15.9488 0 -18.7508
1.66638 0 -1.54624
0.592498 0 -1.51275
-3.26516 0 -1.68278
-0.873848 0 -1.76197
11.7126 0 -1.73061
4.34724 0 -1.31392
0.654421 0 -1.07161
7.0328 0 -1.20361
4.38626 0 -2.26683
1.5966 0 -2.96228
5.65504 0 -3.49753
4.14352 0 -3.44269
4.7936 0 -2.4093
4.77431 0 2.14557
-13.1947 0 7.60233
1.06415 0 11.0312
6.44849 0 14.1117
-18.8981 0 42.3686
15.6157 0 -16.4581
8.60079 0 20.3221
-4.52699 0 9.63585
-6.75314 0 -7.50834
18.3694 0 9.65707
-2.86985 0 -8.41225
-3.66134 0 -8.17931
-1.62133 0 -8.34762
-0.704542 0 -8.42261
-1.11198 0 -7.91614
3.41897 0 -7.2057
0.557953 0 -6.264
0.413465 0 -5.68017
6.2804 0 -5.88428
1.63992 0 -6.20273
-3.22839 0 -6.48959
8.74265 0 -6.50116
10.9601 0 -6.57564
6.73044 0 -6.48753
-1.0844 0 -5.74631
-4.60519 0 -12.5566
13.2573 0 15.3217
22.8396 0 -190.384
15.443 0 -104.249
7.80204 0 -151.273
7.56668 0 -175.536
2.57317 0 11.6586
-2.43341 0 -2.95369
3.14073 0 -9.10568
6.54942 0 -175.029
-1.30077 0 380.503
1.30077 0 380.503
-6.54942 0 -175.029
-3.14073 0 -9.10568
2.43341 0 -2.95369
-2.57317 0 11.6586
-7.56668 0 -175.536
-7.80204 0 -151.273
-15.443 0 -104.249
-22.8396 0 -190.384
-13.2573 0 15.3217
4.60519 0 -12.5566
1.0844 0 -5.74631
-6.73044 0 -6.48753
-10.9601 0 -6.57564
-8.74265 0 -6.50116
3.22839 0 -6.48959
-1.63992 0 -6.20273
-6.2804 0 -5.88428
-0.413465 0 -5.68017
-0.557953 0 -6.264
-3.41897 0 -7.2057
1.11198 0 -7.91614
0.704542 0 -8.42261
1.62133 0 -8.34762
3.66134 0 -8.17931
2.86985 0 -8.41225
-18.3694 0 9.65707
6.75314 0 -7.50834
4.52699 0 9.63585
-8.60079 0 20.3221
-2.25334 0 -69.5378
8.05012 0 -18.2036
7.92205 0 -6.10448
1.46308 0 7.33146
-2.8417 0 -1.4291
-3.2198 0 -0.792474
-1.42524 0 -0.448837
-1.12158 0 0.0204307
-2.40987 0 0.903647
1.7949 0 1.60479
-1.71 0 1.6569
-2.31847 0 1.47506
3.5335 0 0.927829
-1.69354 0 0.572441
-6.7448 0 0.416151
6.18958 0 0.206033
7.31296 0 0.422336
2.71902 0 0.702193
-7.96829 0 2.94576
6.41854 0 -17.6895
-14.4735 0 -3.36162
3.96257 0 243.393
-5.85473 0 -27.5754
-7.45752 0 50.5957
-6.77779 0 196.831
-8.27925 0 73.9657
1.71418 0 -1.67176
3.74881 0 -31.9307
-2.31654 0 90.4317
-1.74458 0 -25.3328
1.74458 0 -25.3328
2.31654 0 90.4317
-3.74881 0 -31.9307
-1.71418 0 -1.67176
8.27925 0 73.9657
6.77779 0 196.831
7.45752 0 50.5957
5.85473 0 -27.5754
-3.96257 0 243.393
14.4735 0 -3.36162
-6.41854 0 -17.6895
7.96829 0 2.94576
-2.71902 0 0.702193
-7.31296 0 0.422336
-6.18958 0 0.206033
6.7448 0 0.416151
1.69354 0 0.572441
-3.5335 0 0.927829
2.31847 0 1.47506
1.71 0 1.6569
-1.7949 0 1.60479
2.40987 0 0.903647
1.12158 0 0.0204307
1.42524 0 -0.448837
3.2198 0 -0.792474
2.8417 0 -1.4291
-1.46308 0 7.33146
-7.92205 0 -6.10448
-8.05012 0 -18.2036
2.25334 0 -69.5378
-6.61241 0 69.8667
4.7638 0 28.372
3.08239 0 -11.0934
0.28213 0 -2.43563
-0.800906 0 -1.5559
-1.5619 0 -0.839175
0.0833995 0 -0.461215
0.0478026 0 0.0866277
-1.36817 0 0.797639
2.34201 0 1.44591
-1.37411 0 1.41252
-1.69052 0 1.34357
4.4648 0 1.04967
-1.11502 0 1.05683
-4.98746 0 0.99159
7.99477 0 0.858657
8.06734 0 0.825042
3.10208 0 1.43464
-13.6883 0 4.12878
16.0492 0 -23.3441
-15.9583 0 -30.56
12.2977 0 9.9381
6.25291 0 130.678
0.674922 0 107.18
-0.828509 0 -3.4919
-4.50859 0 -121.034
4.41006 0 2.64186
2.47487 0 -89.4797
-3.96476 0 65.8505
3.27509 0 -245.374
-3.27509 0 -245.374
3.96476 0 65.8505
-2.47487 0 -89.4797
-4.41006 0 2.64186
4.50859 0 -121.034
0.828509 0 -3.4919
-0.674922 0 107.18
-6.25291 0 130.678
-12.2977 0 9.9381
15.9583 0 -30.56
-16.0492 0 -23.3441
13.6883 0 4.12878
-3.10208 0 1.43464
-8.06734 0 0.825042
-7.99477 0 0.858657
4.98746 0 0.99159
1.11502 0 1.05683
-4.4648 0 1.04967
1.69052 0 1.34357
1.37411 0 1.41252
-2.34201 0 1.44591
1.36817 0 0.797639
-0.0478026 0 0.0866277
-0.0833995 0 -0.461215
1.5619 0 -0.839175
0.800906 0 -1.5559
-0.28213 0 -2.43563
-3.08239 0 -11.0934
-4.7638 0 28.372
6.61241 0 69.8667
1.28735 0 -7.85709
0.117105 0 5.09488
1.79177 0 -5.40163
1.64537 0 -4.24552
1.85613 0 -3.6932
0.554995 0 -3.8661
1.43937 0 -3.88548
1.31596 0 -3.50857
-0.733208 0 -3.05635
2.47514 0 -2.63242
-1.34091 0 -2.33964
-1.86642 0 -2.12906
4.64976 0 -1.95201
-1.3108 0 -1.78012
-4.45969 0 -1.73417
8.55858 0 -1.93048
7.18654 0 -1.94
1.14547 0 -0.859623
-16.2599 0 4.18185
20.2985 0 20.3399
-18.4003 0 10.3786
10.8712 0 -16.223
3.45883 0 -5.69008
2.75673 0 -39.5799
0.158166 0 -195.614
-2.38841 0 17.7545
2.10875 0 -137.013
-2.387 0 108.209
0.632936 0 -186.247
-2.1167 0 255.451
2.1167 0 255.451
-0.632936 0 -186.247
2.387 0 108.209
-2.10875 0 -137.013
2.38841 0 17.7545
-0.158166 0 -195.614
-2.75673 0 -39.5799
-3.45883 0 -5.69008
-10.8712 0 -16.223
18.4003 0 10.3786
-20.2985 0 20.3399
16.2599 0 4.18185
-1.14547 0 -0.859623
-7.18654 0 -1.94
-8.55858 0 -1.93048
4.45969 0 -1.73417
1.3108 0 -1.78012
-4.64976 0 -1.95201
1.86642 0 -2.12906
1.34091 0 -2.33964
-2.47514 0 -2.63242
0.733208 0 -3.05635
-1.31596 0 -3.50857
-1.43937 0 -3.88548
-0.554995 0 -3.8661
-1.85613 0 -3.6932
-1.64537 0 -4.24552
-1.79177 0 -5.40163
-0.117105 0 5.09488
-1.28735 0 -7.85709
1.28735 0 7.85709
0.117105 0 -5.09488
1.79178 0 5.40163
1.64537 0 4.24551
1.85613 0 3.6932
0.554998 0 3.86609
1.43939 0 3.88545
1.3161 0 3.5085
-0.732522 0 3.05616
2.47703 0 2.63285
-1.33981 0 2.3394
-1.87891 0 2.11679
4.62306 0 1.92815
-1.15994 0 1.69665
-3.83685 0 1.37837
8.68004 0 1.58696
6.53076 0 2.26842
-1.8797 0 4.21515
-8.301 0 8.67953
10.4655 0 -4.90677
-13.293 0 -66.1696
-0.173684 0 -82.2433
3.23368 0 -222.563
0.0307371 0 -15.885
-4.8006 0 206.566
2.42268 0 64.5248
2.11898 0 39.3175
2.84474 0 -32.6625
-3.36527 0 153.25
0.338427 0 28.4448
-0.338427 0 28.4448
3.36527 0 153.25
-2.84474 0 -32.6625
-2.11898 0 39.3175
-2.42268 0 64.5248
4.8006 0 206.566
-0.0307371 0 -15.885
-3.23368 0 -222.563
0.173684 0 -82.2433
13.293 0 -66.1696
-10.4655 0 -4.90677
8.301 0 8.67953
1.8797 0 4.21515
-6.53076 0 2.26842
-8.68004 0 1.58696
3.83685 0 1.37837
1.15994 0 1.69665
-4.62306 0 1.92815
1.87891 0 2.11679
1.33981 0 2.3394
-2.47703 0 2.63285
0.732522 0 3.05616
-1.3161 0 3.5085
-1.43939 0 3.88545
-0.554998 0 3.86609
-1.85613 0 3.6932
-1.64537 0 4.24551
-1.79178 0 5.40163
-0.117105 0 -5.09488
-1.28735 0 7.85709
-6.61241 0 -69.8667
4.7638 0 -28.3721
3.08239 0 11.0934
0.282126 0 2.4356
-0.80092 0 1.55589
-1.56194 0 0.839154
0.0832724 0 0.461126
0.047324 0 -0.0867968
-1.37029 0 -0.798532
2.33443 0 -1.44568
-1.39578 0 -1.42107
-1.7181 0 -1.36956
4.60095 0 -1.13827
-0.332929 0 -1.16815
-3.22365 0 -1.17342
8.58748 0 -0.491006
5.82974 0 1.34701
-6.59026 0 4.26596
10.7758 0 -4.70069
10.2146 0 -16.817
-12.2722 0 -87.9768
-15.6458 0 -20.0005
-1.82873 0 157.657
-7.76785 0 57.3781
-16.516 0 -53.6276
-39.3542 0 -143.97
-28.6734 0 -43.4286
-26.0061 0 -131.483
-8.31951 0 66.1424
1.84107 0 2.85127
-1.84107 0 2.85127
8.31951 0 66.1424
26.0061 0 -131.483
28.6734 0 -43.4286
39.3542 0 -143.97
16.516 0 -53.6276
7.76785 0 57.3781
1.82873 0 157.657
15.6458 0 -20.0005
12.2722 0 -87.9768
-10.2146 0 -16.817
-10.7758 0 -4.70069
6.59026 0 4.26596
-5.82974 0 1.34701
-8.58748 0 -0.491006
3.22365 0 -1.17342
0.332929 0 -1.16815
-4.60095 0 -1.13827
1.7181 0 -1.36956
1.39578 0 -1.42107
-2.33443 0 -1.44568
1.37029 0 -0.798532
-0.047324 0 -0.0867968
-0.0832724 0 0.461126
1.56194 0 0.839154
0.80092 0 1.55589
-0.282126 0 2.4356
-3.08239 0 11.0934
-4.7638 0 -28.3721
6.61241 0 -69.8667
-2.25334 0 69.5378
8.05013 0 18.2036
7.92206 0 6.10448
1.46312 0 -7.33144
-2.84154 0 1.42909
-3.21938 0 0.792426
-1.42435 0 0.448593
-1.11957 0 -0.0210066
-2.40398 0 -0.906835
1.80548 0 -1.60493
-1.6999 0 -1.68078
-2.24911 0 -1.55063
4.01186 0 -1.10498
-0.0709522 0 -0.61822
-3.77614 0 0.190953
7.55648 0 2.64479
3.10947 0 6.72644
-17.266 0 11.1601
-29.0154 0 -143.862
-62.3863 0 12.909
60.574 0 55.0232
-12.0814 0 18.774
0.943949 0 49.9833
37.4623 0 -21.4919
82.3347 0 -120.532
70.6603 0 138.668
66.2501 0 65.6983
76.7389 0 -22.703
11.7356 0 6.15091
3.91187 0 -14.8406
-3.91187 0 -14.8406
-11.7356 0 6.15091
-76.7389 0 -22.703
-66.2501 0 65.6983
-70.6603 0 138.668
-82.3347 0 -120.532
-37.4623 0 -21.4919
-0.943949 0 49.9833
12.0814 0 18.774
-60.574 0 55.0232
62.3863 0 12.909
29.0154 0 -143.862
17.266 0 11.1601
-3.10947 0 6.72644
-7.55648 0 2.64479
3.77614 0 0.190953
0.0709522 0 -0.61822
-4.01186 0 -1.10498
2.24911 0 -1.55063
1.6999 0 -1.68078
-1.80548 0 -1.60493
2.40398 0 -0.906835
1.11957 0 -0.0210066
1.42435 0 0.448593
3.21938 0 0.792426
2.84155 0 1.42909
-1.46312 0 -7.33144
-7.92206 0 6.10448
-8.05013 0 18.2036
2.25334 0 69.5378
8.60079 0 -20.3221
-4.52702 0 -9.63585
-6.7533 0 7.50839
18.3694 0 -9.65705
-2.87074 0 8.41211
-3.664 0 8.17899
-1.62693 0 8.3472
-0.715117 0 8.42112
-1.14313 0 7.90825
3.33497 0 7.20097
0.383099 0 6.21802
0.251247 0 5.53761
6.72178 0 5.87179
2.95155 0 7.05796
-0.125495 0 10.3096
11.7791 0 15.5102
0.138265 0 18.4492
-93.0061 0 -42.7544
51.5567 0 115.936
-17.7112 0 -1.64083
-89.9135 0 50.3594
54.3921 0 -63.296
-9.77332 0 32.9797
88.5705 0 -147.22
-65.1168 0 183.764
31.6829 0 10.3509
-20.31 0 18.9824
-33.9898 0 149.499
77.7429 0 -179.806
-52.1254 0 -246.164
52.1254 0 -246.164
-77.7429 0 -179.806
33.9898 0 149.499
20.31 0 18.9824
-31.6829 0 10.3509
65.1168 0 183.764
-88.5705 0 -147.22
9.77332 0 32.9797
-54.3921 0 -63.296
89.9135 0 50.3594
17.7112 0 -1.64083
-51.5567 0 115.936
93.0061 0 -42.7544
-0.138265 0 18.4492
-11.7791 0 15.5102
0.125495 0 10.3096
-2.95155 0 7.05796
-6.72178 0 5.87179
-0.251247 0 5.53761
-0.383099 0 6.21802
-3.33497 0 7.20097
1.14313 0 7.90825
0.715117 0 8.42112
1.62693 0 8.3472
3.664 0 8.17899
2.87074 0 8.41211
-18.3694 0 -9.65705
6.7533 0 7.50839
4.52702 0 -9.63585
-8.60079 0 -20.3221
-15.6157 0 16.4581
18.8981 0 -42.3685
-6.44825 0 -14.1117
-1.06213 0 -11.0311
13.1971 0 -7.60226
-4.76302 0 -2.14481
-4.7677 0 2.40916
-4.09549 0 3.43737
-5.53599 0 3.48005
-1.45168 0 2.90563
-4.18681 0 2.04451
-6.13037 0 0.901047
1.40507 0 2.66598
-1.82224 0 6.68821
-64.0308 0 7.47146
-255.598 0 0.809798
295.397 0 12.8176
-74.3502 0 33.4581
105.802 0 55.5288
-78.9787 0 -100.92
-111.185 0 76.4967
-20.8584 0 -110.655
-61.4208 0 147.433
66.5345 0 -20.3351
-79.2175 0 -15.859
-36.4767 0 -30.2985
-160.37 0 32.9168
-193.329 0 -2.57354
-107.794 0 -60.5915
-197.889 0 149.275
197.889 0 149.275
107.794 0 -60.5915
193.329 0 -2.57354
160.37 0 32.9168
36.4767 0 -30.2985
79.2175 0 -15.859
-66.5345 0 -20.3351
61.4208 0 147.433
20.8584 0 -110.655
111.185 0 76.4967