# vtk DataFile Version 3.0
SiWiRVisFile
ASCII
DATASET UNSTRUCTURED_GRID
POINTS 1600 DOUBLE
77.1015 100 72.3562
75.7043 100 72.7428
76.6547 100 73.5031
78.3913 100 73.3891
79.5069 100 73.8738
80.5861 100 74.1783
82.2734 100 73.9943
83.3813 100 74.4447
84.5204 100 74.5756
83.7237 100 73.3752
92.3427 100 68.777
91.2689 100 68.4496
91.6077 100 69.6015
90.0458 100 68.609
85.4458 100 67.911
90.2379 100 59.5211
91.4154 100 59.4301
91.8216 100 57.5109
88.3377 100 52.2686
93.5823 100 56.9612
105.981 100 36.844
106.84 100 35.8479
106.106 100 34.66
107.268 100 34.8991
104.917 100 34.711
112.003 100 36.0646
111.293 100 28.5359
111.781 100 27.6681
110.623 100 30.1604
111.632 100 29.6816
112.704 100 29.5917
113.805 100 29.9956
112.527 100 28.4172
113.673 100 28.8876
113.885 100 34.6559
119.253 100 34.8604
116.89 100 34.6164
118.102 100 34.7024
117.414 100 35.773
118.196 100 36.8866
130.129 100 56.7552
136.155 100 52.2686
131.863 100 57.9166
133.21 100 59.6305
134.774 100 59.2146
135.767 100 69.3882
134.7 100 67.7364
134.222 100 70.3494
133.719 100 68.3425
133.355 100 69.5747
140.638 100 73.0717
140.121 100 74.5806
141.18 100 74.0187
142.301 100 73.7039
144.076 100 74.181
145.021 100 73.6203
146.237 100 73.0777
147.966 100 73.5414
148.777 100 72.81
147.744 100 72.3918
74.7922 100 73.6385
75.7278 100 74.1277
77.563 100 74.0842
78.5019 100 74.5613
79.6017 100 74.9918
81.602 100 74.7666
82.5569 100 75.2094
83.7423 100 75.4127
84.9849 100 75.6173
86.1299 100 75.4846
87.175 100 75.7886
92.0529 100 67.6955
90.4916 100 69.5422
91.0221 100 65.673
91.3085 100 60.6548
90.6058 100 67.3637
92.2866 100 58.631
93.1778 100 57.9355
94.1986 100 58.0188
97.1206 100 55.9274
105.725 100 35.7638
96.894 100 42.749
106.311 100 45.3698
110.175 100 33.3356
108.093 100 34.0822
111.036 100 35.4767
110.419 100 34.5015
109.295 100 34.2483
107.119 100 26.2789
111.902 100 30.9367
112.981 100 30.6845
117.636 100 26.3337
113.432 100 32.5753
115.79 100 33.915
114.9 100 35.7249
115.913 100 35.2349
114.415 100 33.328
118.237 100 45.3676
127.598 100 42.749
118.5 100 35.8008
126.828 100 56.5963
128.994 100 57.8073
131.297 100 57.0155
133.642 100 58.548
133.218 100 66.9842
132.709 100 60.6474
132.504 100 64.2646
134.616 100 69.297
132.136 100 67.5737
137.929 100 76.0928
138.795 100 75.2579
139.749 100 75.7092
140.852 100 75.3885
141.934 100 75.0341
143.035 100 74.545
144.981 100 75.002
145.992 100 74.4588
146.982 100 74.055
148.908 100 74.2047
149.698 100 73.5484
74.7499 100 74.7803
75.753 100 75.2863
76.6148 100 74.6824
77.6422 100 75.1342
78.7554 100 75.6343
80.6401 100 75.35
81.7375 100 75.9339
82.9651 100 76.3876
84.0747 100 76.4552
85.3811 100 76.6626
86.4538 100 76.7396
86.9262 100 77.7483
89.0423 100 77.0151
91.7783 100 66.7121
90.893 100 63.6461
93.5455 100 62.2818
92.5875 100 59.8868
93.3552 100 59.0102
94.7952 100 59.0574
95.8898 100 56.0419
98.103 100 55.311
104.671 100 47.0246
105.672 100 46.2034
106.58 100 46.8706
99.949 100 43.6246
107.623 100 45.9535
107.46 100 44.825
105.164 100 44.9032
110.758 100 32.4218
111.859 100 32.6728
112.625 100 31.904
113.76 100 31.4903
121.299 100 44.7883
117.825 100 44.2957
117.712 100 46.2885
121.201 100 46.0479
118.293 100 47.2054
119.039 100 46.4049
120.643 100 47.3639
126.032 100 55.7925
128.91 100 56.3344
130.242 100 57.7918
132.518 100 58.7038
131.954 100 59.7258
132.474 100 61.813
132.274 100 63.1669
132.757 100 65.9158
135.933 100 76.3608
137.33 100 77.0641
138.418 100 77.0365
139.509 100 76.914
140.541 100 76.4564
141.589 100 76.1207
142.759 100 75.6971
143.872 100 75.2636
145.811 100 75.7202
146.838 100 75.2895
147.824 100 74.7074
148.866 100 75.4256
149.867 100 74.7748
74.6917 100 75.9656
75.9032 100 76.4128
76.7653 100 75.7592
77.7732 100 76.2183
79.7616 100 76.1903
80.7936 100 76.6334
81.8182 100 77.0609
83.0876 100 77.4829
84.659 100 77.3951
85.8644 100 77.7204
86.127 100 79.2102
88.212 100 78.178
87.9686 100 76.7582
92.1329 100 65.5614
91.5787 100 64.5756
92.2839 100 63.6066
93.4442 100 61.0006
92.4153 100 61.4621
93.7827 100 59.9722
95.2989 100 60.131
95.8248 100 57.9211
98.5271 100 56.5958
104.528 100 45.8711
105.577 100 51.0551
105.66 100 47.5815
105.807 100 48.594
108.512 100 48.3849
110.614 100 48.5179
108.555 100 44.72
111.739 100 33.9469
113.242 100 33.61
116.154 100 44.849
115.191 100 46.5374
115.865 100 47.6973
118.019 100 48.3166
119.475 100 47.4277
119.077 100 48.5652
120.133 100 45.1629
125.491 100 56.8176
128.278 100 58.6125
129.368 100 59.56
130.864 100 60.2754
131.592 100 61.0666
131.473 100 62.3987
131.183 100 63.5628
131.79 100 65.2854
131.785 100 66.545
136.88 100 75.5314
136.87 100 78.3154
138.008 100 77.9573
139.161 100 77.9562
140.319 100 77.6221
141.411 100 77.2472
142.625 100 76.7617
143.66 100 76.358
144.667 100 76.091
146.723 100 76.4252
147.706 100 75.9129
148.574 100 76.6483
149.9 100 76.1398
74.8808 100 77.165
75.9585 100 77.6197
76.8721 100 77.0746
78.8723 100 76.7666
79.9493 100 77.2674
80.9014 100 77.853
82.0214 100 78.2228
82.9989 100 78.8138
83.9043 100 78.2932
85.0844 100 78.4362
85.9658 100 80.3255
89.3279 100 78.6666
89.9494 100 76.1601
95.0302 100 63.9679
92.7843 100 64.6575
94.6266 100 61.8197
96.4124 100 61.8778
95.6544 100 61.1642
95.8636 100 58.9684
96.9099 100 58.1664
96.4158 100 57.0563
102.66 100 55.0297
104.661 100 49.8291
107.155 100 49.121
106.747 100 48.047
108.164 100 49.5897
109.283 100 49.1589
110.358 100 49.596
107.645 100 47.2058
111.003 100 36.6117
111.62 100 37.5611
116.333 100 46.4448
113.839 100 49.4268
114.717 100 48.8255
115.896 100 48.8318
117.249 100 47.483
117.66 100 49.5168
117.746 100 50.5301
121.933 100 54.3426
128.026 100 56.9276
127.436 100 57.8425
128.303 100 59.7656
129.845 100 60.5682
130.554 100 61.3937
129.134 100 62.033
130.398 100 65.5837
130.419 100 64.3234
136.248 100 77.3824
135.809 100 78.5193
138.427 100 80.0286
138.932 100 79.0326
140.227 100 78.8758
141.231 100 78.4552
142.33 100 77.7931
143.432 100 77.5179
144.613 100 77.3287
145.669 100 76.8268
147.586 100 77.1175
148.48 100 77.7503
149.54 100 77.2437
75.2175 100 78.5002
76.1903 100 78.8975
77.0469 100 78.1009
78.0537 100 77.5129
78.997 100 77.9145
79.9163 100 78.5419
80.9746 100 78.8714
82.0434 100 79.3849
83.0123 100 80.0359
83.9792 100 79.39
85.0672 100 79.4824
87.2993 100 78.8113
90.0336 100 79.5751
88.2793 100 75.7783
91.0677 100 75.926
94.1886 100 63.2605
96.3941 100 63.1733
97.4316 100 62.0477
97.0584 100 60.9829
97.0517 100 59.2337
98.0491 100 57.8182
100.526 100 57.1748
104.272 100 53.6438
104.675 100 52.3721
105.886 100 50.0383
106.987 100 50.3458
108.688 100 52.0331
108.887 100 50.4883
112.114 100 48.5191
111.333 100 47.5972
114.625 100 47.5452
113.792 100 50.5303
115.249 100 49.8048
115.802 100 51.1677
116.677 100 50.1468
118.67 100 49.7545
118.775 100 50.7884
121.257 100 53.3065
124.236 100 57.7308
126.367 100 57.6912
127.175 100 59.0647
128.748 100 60.7896
127.854 100 61.5443
128.385 100 63.0546
130.077 100 62.5897
134.728 100 75.8384
136.336 100 73.6082
135.154 100 79.7813
137.452 100 79.513
139.626 100 79.8889
140.725 100 79.7526
141.498 100 80.4719
142.068 100 79.4016
142.94 100 78.7405
144.385 100 78.4326
145.39 100 77.9802
146.556 100 77.5285
147.356 100 78.2523
148.266 100 78.9225
149.334 100 78.3562
74.1796 100 78.6042
74.9447 100 79.5426
77.1349 100 79.3403
78.076 100 78.6636
79.0493 100 79.4109
78.9807 100 81.6564
81.1204 100 79.932
82.1164 100 80.6515
83.3195 100 81.009
84.3576 100 80.4671
85.3852 100 81.4061
88.2343 100 79.416
90.2026 100 80.6985
89.3438 100 75.1495
95.3999 100 65.0191
95.3102 100 62.7502
96.3463 100 64.2648
98.344 100 62.8438
97.7551 100 60.0736
98.1564 100 59.037
99.4949 100 57.7051
101.54 100 56.691
103.835 100 54.7269
106.554 100 51.5109
109.119 100 53.0818
109.638 100 51.2274
107.594 100 54.2179
110.556 100 50.5995
106.781 100 55.0617
108.606 100 55.349
117.188 100 56.0722
116.725 100 55.0677
114.469 100 51.299
115.482 100 55.1363
114.968 100 52.4062
116.05 100 52.3032
116.912 100 51.3851
120.806 100 54.354
122.123 100 55.9286
125.379 100 58.1512
126.058 100 59.0188
127.517 100 60.4916
126.774 100 61.2223
127.543 100 63.7218
129.502 100 63.6146
129.414 100 64.8283
135.739 100 75.2499
130.309 100 80.8807
136.177 100 79.9405
139.322 100 80.9181
140.495 100 81.0775
141.398 100 81.6469
142.572 100 80.4301
143.43 100 79.7569
145.17 100 80.5036
145.245 100 79.2926
146.305 100 78.7239
147.353 100 79.4346
149.194 100 79.4365
150.426 100 78.75
73.8972 100 79.7101
75.1135 100 80.7412
75.9623 100 79.9512
77.0225 100 80.4709
77.9939 100 79.8791
78.0758 100 81.0257
80.1105 100 80.2512
81.0918 100 81.0362
82.1167 100 81.7778
83.909 100 81.8627
84.8733 100 82.3398
85.9491 100 82.5174
87.039 100 79.9631
87.1106 100 81.8548
87.1781 100 82.9578
91.206 100 79.6024
96.4231 100 65.3351
97.4037 100 63.6778
99.8128 100 60.6754
98.2105 100 61.0251
98.8592 100 59.9705
99.2822 100 58.828
104.801 100 55.4822
105.741 100 52.2224
107.57 100 52.1116
108.763 100 54.2938
107.902 100 53.2681
105.557 100 56.3307
106.683 100 56.101
109.428 100 57.8994
116.058 100 56.1342
119.547 100 56.168
120.126 100 57.4215
116.763 100 53.5647
115.801 100 54.158
117.194 100 52.4964
118.05 100 51.59
121.212 100 55.3302
124.578 100 58.8918
126.503 100 60.1761
125.657 100 61.0517
125.721 100 62.4366
126.848 100 62.2989
128.601 100 64.1673
131.431 100 80.1984
137.713 100 82.3415
138.138 100 81.2304
137.259 100 80.7543
138.753 100 82.4297
139.73 100 82.8935
139.839 100 81.8493
142.692 100 81.5892
143.769 100 81.8381
144.02 100 80.6579
145.957 100 81.3179
146.34 100 79.9022
147.246 100 80.5393
148.225 100 80.0913
149.223 100 80.504
150.632 100 79.8332
74.0488 100 81.0708
74.8711 100 82.0123
76.1517 100 81.1342
77.1141 100 81.5583
77.9327 100 83.3602
75.8549 100 84.2049
78.0182 100 82.3189
80.0916 100 81.6576
81.0796 100 82.2397
79.9118 100 82.6778
82.3918 100 82.779
83.9186 100 83.6257
85.1441 100 83.3111
86.1852 100 83.6445
88.2156 100 83.3244
90.4779 100 78.6233
97.2872 100 66.0151
97.4778 100 64.7944
99.5773 100 62.3434
100.874 100 62.3803
100.497 100 58.2121
[...]
POINT_DATA 1600
SCALARS mass double
LOOKUP_TABLE default
1
1
1
1
1
1
1
1
1
1
1
1
1
1
1
1
1
1
1
1
1
1
1
1
1
1
1
1
1
1
1
1
1
1
1
1
1
1
1
1
1
1
1
1
1
1
1
1
1
1
1
1
1
1
1
1
1
1
1
1
1
1
1
1
1
1
1
1
1
1
1
1
1
1
1
1
1
1
1
1
1
1
1
1
1
1
1
1
1
1
1
1
1
1
1
1
1
1
1
1
1
1
1
1
1
1
1
1
1
1
1
1
1
1
1
1
1
1
1
1
1
1
1
1
1
1
1
1
1
1
1
1
1
1
1
1
1
1
1
1
1
1
1
1
1
1
1
1
1
1
1
1
1
1
1
1
1
1
1
1
1
1
1
1
1
1
1
1
1
1
1
1
1
1
1
1
1
1
1
1
1
1
1
1
1
1
1
1
1
1
1
1
1
1
1
1
1
1
1
1
1
1
1
1
1
1
1
1
1
1
1
1
1
1
1
1
1
1
1
1
1
1
1
1
1
1
1
1
1
1
1
1
1
1
1
1
1
1
1
1
1
1
1
1
1
1
1
1
1
1
1
1
1
1
1
1
1
1
1
1
1
1
1
1
1
1
1
1
1
1
1
1
1
1
1
1
1
1
1
1
1
1
1
1
1
1
1
1
1
1
1
1
1
1
1
1
1
1
1
1
1
1
1
1
1
1
1
1
1
1
1
1
1
1
1
1
1
1
1
1
1
1
1
1
1
1
1
1
1
1
1
1
1
1
1
1
1
1
1
1
1
1
1
1
1
1
1
1
1
1
1
1
1
1
1
1
1
1
1
1
1
1
1
1
1
1
1
1
1
1
1
1
1
1
1
1
1
1
1
1
1
1
1
1
1
1
1
1
1
1
1
1
1
1
1
1
1
1
1
1
1
1
1
1
1
1
1
1
1
1
1
1
1
1
1
1
1
1
1
1
1
1
1
1
1
1
1
1
1
1
1
1
1
1
1
1
1
1
1
1
1
1
1
1
1
1
1
1
1
1
1
1
1
1
1
1
1
1
1
1
1
1
1
1
1
1
1
1
1
1
1
1
1
1
1
1
1
1
1
1
1
1
1
1
1
1
1
1
1
1
1
1
1
1
1
1
1
1
1
1
1
1
1
1
1
1
1
1
1
1
1
1
1
1
1
1
1
1
1
1
1
1
1
1
1
1
1
1
1
1
1
1
1
1
1
1
1
1
1
1
1
1
1
1
1
1
1
1
1
1
1
1
1
1
1
1
1
1
1
1
1
1
1
1
1
1
1
1
1
1
1
1
1
1
1
1
1
1
1
1
1
1
1
1
1
1
1
1
1
1
1
1
1
1
1
1
1
1
1
1
1
1
1
1
1
1
1
1
1
1
1
1
1
1
1
1
1
1
1
1
1
1
1
1
1
1
1
1
1
1
1
1
1
1
1
1
1
1
1
1
1
1
1
1
1
1
1
1
1
1
1
1
1
1
1
1
1
1
1
1
1
1
1
1
1
1
1
1
1
1
1
1
1
1
1
1
1
1
1
1
1
1
1
1
1
1
1
1
1
1
1
1
1
1
1
1
1
1
1
1
1
1
1
1
1
1
1
1
1
1
1
1
1
1
1
1
1
1
1
1
1
1
1
1
1
1
1
1
1
1
1
1
1
1
1
1
1
1
1
1
1
1
1
1
1
1
1
1
1
1
1
1
1
1
1
1
1
1
1
1
1
1
1
1
1
1
1
1
1
1
1
1
1
1
1
1
1
1
1
1
1
1
1
1
1
1
1
1
1
1
1
1
1
1
1
1
1
1
1
1
1
1
1
1
1
1
1
1
1
1
1
1
1
1
1
1
1
1
1
1
1
1
1
1
1
1
1
1
1
1
1
1
1
1
1
1
1
1
1
1
1
1
1
1
1
1
1
1
1
1
1
1
1
1
1
1
1
1
1
1
1
1
1
1
1
1
1
1
1
1
1
1
1
1
1
1
1
1
1
1
1
1
1
1
1
1
1
1
1
1
1
1
1
1
1
1
1
1
1
1
1
1
1
1
1
1
1
1
1
1
1
1
1
1
1
1
1
1
1
1
1
1
1
1
1
1
1
1
1
1
1
1
1
1
1
1
1
1
1
1
1
1
1
1
1
1
1
1
1
1
1
1
1
1
1
1
1
1
1
1
1
1
1
1
1
1
1
1
1
1
1
1
1
1
1
1
1
1
1
1
1
1
1
1
1
1
1
1
1
1
1
1
1
1
1
1
1
1
1
1
1
1
1
1
1
1
1
1
1
1
1
1
1
1
1
1
1
1
1
1
1
1
1
1
1
1
1
1
1
1
1
1
1
1
1
1
1
1
1
1
1
1
1
1
1
1
1
1
1
1
1
1
1
1
1
1
1
1
1
1
1
1
1
1
1
1
1
1
1
1
1
1
1
1
1
1
1
1
1
1
1
1
1
1
1
1
1
1
1
1
1
1
1
1
1
1
1
1
1
1
1
1
1
1
1
1
1
1
1
1
1
1
1
1
1
1
1
1
1
1
1
1
1
1
1
1
1
1
1
1
1
1
1
1
1
1
1
1
1
1
1
1
1
1
1
1
1
1
1
1
1
1
1
1
1
1
1
1
1
1
1
1
1
1
1
1
1
1
1
1
1
1
1
1
1
1
1
1
1
1
1
1
1
1
1
1
1
1
1
1
1
1
1
1
1
1
1
1
1
1
1
1
1
1
1
1
1
1
1
1
1
1
1
1
1
1
1
1
1
1
1
1
1
1
1
1
1
1
1
1
1
1
1
1
1
1
1
1
1
1
1
1
1
1
1
1
1
1
1
1
1
1
1
1
1
1
1
1
1
1
1
1
1
1
1
1
1
1
1
1
1
1
1
1
1
1
1
1
1
1
1
1
1
1
1
1
1
1
1
1
1
1
1
1
1
1
1
1
1
1
1
1
1
1
1
1
1
1
1
1
1
1
1
1
1
1
1
1
1
1
1
1
1
1
1
1
1
1
1
1
1
1
1
1
1
1
1
1
1
1
1
1
1
1
1
1
1
1
1
1
1
1
1
1
1
1
1
1
1
1
1
1
1
1
1
1
1
1
1
1
1
1
1
1
1
1
1
1
1
1
1
1
1
1
1
1
1
1
1
1
1
1
1
1
1
1
1
1
1
1
1
1
1
1
1
1
1
1
1
1
1
1
1
1
1
1
1
1
1
1
1
1
1
1
1
1
1
1
1
1
1
1
1
1
1
1
1
1
1
1
1
1
1
1
1
1
1
1
1
1
1
1
1
1
1
1
1
1
1
1
1
1
1
1
1
1
1
1
1
1
1
1
1
1
1
1
1
1
1
1
1
1
1
1
1
1
1
1
1
1
1
1
1
1
1
1
1
1
1
1
1
1
1
1
1
1
1
1
1
1
1
1
1
1
1
1
1
1
1
1
1
1
1
1
1
1
1
1
1
1
1
1
1
1
1
1
1
1
1
1
1
1
1
1
1
1
1
1
1
1
1
1
1
1
1
1
1
1
1
1
1
1
1
1
1
1
1
1
1
1
1
1
1
1
1
1
1
1
1
1
1
1
1
1
1
1
1
1
1
1
1
1
1
1
1
1
1
1
1
1
VECTORS force double
-8.36938 0 17.4339
8.04981 0 23.4683
-18.8694 0 -17.0966
20.1264 0 3.71424
-21.2443 0 4.83498
1.8304 0 22.5964
63.8869 0 -40.6549
-27.7736 0 -58.2983
-10.9515 0 3.48095
-0.280406 0 9.10589
2.5703 0 -4.23549
-30.1125 0 18.2675
-6.85926 0 -8.08464
-8.18583 0 -63.7062
0 0 0
13.6493 0 2.46428
9.38985 0 9.18333
13.8131 0 14.1623
0 0 0
18.7776 0 -22.228
8.04772 0 -5.38818
-31.7 0 47.5657
1.83159 0 18.134
15.0183 0 -53.5602
17.6804 0 8.3667
-7.19633 0 4.48129
-47.5735 0 125.98
39.4025 0 -136.642
5.16349 0 2.05125
-13.662 0 -0.954116
32.2749 0 -11.0253
6.84438 0 -9.55145
23.3702 0 45.7744
-21.636 0 0.902235
1.56374 0 -13.1022
-15.9014 0 8.3546
1.76402 0 10.1572
-7.8228 0 18.7524
-10.5457 0 -15.072
-4.94932 0 -9.90549
-9.16828 0 -47.1243
0 0 0
-34.3452 0 -30.2898
-11.7755 0 -10.5319
-13.2193 0 -4.63752
-9.26684 0 -0.61787
-8.32678 0 7.78305
-4.51996 0 -7.25877
6.00736 0 8.85751
20.6382 0 -8.79138
-5.26102 0 -5.44157
-3.96987 0 -3.85064
10.5679 0 32.3205
-12.0182 0 10.5575
8.42148 0 4.83724
25.3705 0 9.78807
0.972448 0 22.0328
-2.14904 0 11.4011
18.5812 0 8.81371
-3.42619 0 11.6632
-21.5403 0 -18.6674
-12.9451 0 -1.0805
-35.7498 0 -34.0736
100.761 0 -32.9523
16.3913 0 -19.2337
-92.0411 0 46.9958
56.2646 0 11.9415
14.1195 0 53.6541
-16.2743 0 2.81705
-22.3675 0 15.6249
7.00903 0 23.343
24.127 0 65.1675
31.3466 0 44.9306
10.7527 0 0.021703
11.1584 0 -13.1104
18.2031 0 13.5696
-3.35875 0 7.17764
-99.086 0 16.5439
69.9195 0 15.6477
-6.70274 0 9.09681
-3.84122 0 -21.3538
0 0 0
31.2924 0 -33.2913
-10.4597 0 33.0211
5.7085 0 7.53629
-0.913463 0 -3.88564
2.46779 0 -9.12978
3.35988 0 -8.42143
0 0 0
-1.73839 0 -4.46959
-18.8257 0 21.0669
0 0 0
44.9613 0 -7.98335
4.1538 0 15.425
-3.0125 0 -6.15808
7.73143 0 -13.0401
-18.3528 0 3.85198
21.1159 0 -23.0906
0 0 0
17.2322 0 -15.7625
0.686715 0 21.309
15.3769 0 -29.2742
-35.0002 0 -20.054
1.31192 0 13.9233
-14.3199 0 4.24659
-19.5375 0 2.20484
-12.7596 0 9.97559
-11.8234 0 -9.18721
17.8055 0 6.62815
-15.605 0 -32.5921
-35.213 0 -6.32437
29.6661 0 9.2044
-27.4224 0 -37.3587
-26.3578 0 -36.4533
-22.3599 0 15.9321
-14.1593 0 -19.4973
-29.4095 0 16.8699
-10.1458 0 -22.2316
-74.4667 0 49.0263
44.8911 0 -38.645
10.5387 0 0.977763
-41.8407 0 23.8124
69.1642 0 -20.4617
-23.0523 0 53.9088
-31.4961 0 29.0121
10.8529 0 18.2804
-16.8731 0 3.52439
-18.9527 0 -26.3667
17.5894 0 4.68686
24.5449 0 -48.3114
24.5293 0 -15.6158
43.9398 0 3.89071
18.0624 0 1.01424
-33.8694 0 -90.2205
13.4502 0 6.70098
6.72474 0 -11.0209
2.37026 0 -8.37106
-8.45349 0 -25.867
-35.7109 0 3.77912
14.2998 0 4.76127
-3.82791 0 13.5496
13.0986 0 -13.1981
-44.3475 0 39.8011
-4.03744 0 3.89865
0 0 0
-11.8799 0 7.06776
-18.8591 0 10.9789
10.4985 0 19.2454
12.7366 0 -12.3639
-8.0465 0 21.5176
-14.7219 0 -60.5768
-12.4596 0 2.10287
-12.1804 0 15.4521
0.309401 0 7.2672
-26.7775 0 28.4324
-9.57957 0 -10.0991
30.0519 0 24.87
-8.36943 0 -20.8637
-8.28227 0 -6.98915
-1.22048 0 10.017
34.9577 0 -4.48649
4.05229 0 43.7663
50.0533 0 70.4743
9.92731 0 12.3749
-12.722 0 -2.45507
-4.47567 0 -4.10181
-9.95136 0 6.6494
-8.56553 0 -28.8454
-20.5257 0 1.10682
67.1969 0 -60.0369
-1.54142 0 -36.1178
4.99631 0 31.3548
66.6145 0 39.0484
29.219 0 -11.2378
1.66309 0 16.9366
0.885976 0 1.42807
-20.7975 0 -32.1755
36.4706 0 24.5965
-5.64821 0 -0.9271
-10.1403 0 4.56092
24.9306 0 -1.76107
-23.8828 0 24.788
-2.63251 0 23.1543
13.7199 0 33.4371
27.2195 0 -50.0407
31.7067 0 -28.4908
13.5643 0 14.6481
-5.19709 0 18.8196
-42.6454 0 62.1304
-16.6601 0 -32.0853
19.9735 0 -13.6956
8.31175 0 -1.69715
-43.2542 0 67.0392
-4.40623 0 10.1359
9.50542 0 -0.540417
-9.49488 0 15.7365
-3.74824 0 24.2233
1.89231 0 -5.54105
21.9921 0 13.259
-7.56977 0 -29.0027
-35.1308 0 -3.96672
-7.06609 0 4.81603
17.3773 0 5.01965
-26.4121 0 28.0733
2.63211 0 -87.0518
4.17427 0 92.2177
-20.4911 0 1.02925
5.83418 0 -7.93829
4.81259 0 3.18694
-4.9882 0 -9.7026
2.21198 0 44.0734
2.90209 0 4.65857
7.94671 0 14.1573
-7.0456 0 -14.8353
-15.1788 0 3.02644
-7.52872 0 11.717
9.44441 0 0.727856
14.4352 0 5.06128
17.1734 0 14.1331
-22.1046 0 25.0045
6.56308 0 -1.91396
23.7747 0 -22.7551
42.618 0 14.1388
-12.8965 0 -11.8192
21.6936 0 -27.1908
2.15758 0 4.20331
4.90869 0 -29.4075
-7.32148 0 14.7686
35.1565 0 -5.5151
-40.9108 0 103.932
3.22441 0 -4.71365
20.7336 0 23.6879
-27.1278 0 -15.118
-23.9915 0 -5.26335
-39.4529 0 30.1503
64.0113 0 -3.65487
-13.1815 0 -10.6833
37.7797 0 11.0227
17.763 0 -24.3279
-20.8762 0 -5.73351
18.3095 0 -3.07874
-25.8131 0 20.3763
28.0365 0 -85.2774
-24.6774 0 15.8928
-42.7363 0 42.4333
2.85722 0 -87.7878
-7.27298 0 -2.03979
-39.4712 0 24.0089
53.7454 0 -41.0913
-29.8678 0 -15.3162
-14.6957 0 0.794862
-3.28452 0 -5.13834
-11.1147 0 5.77061
21.7997 0 -8.75686
-13.7011 0 -10.661
-0.0850678 0 2.56128
-33.6553 0 46.7022
-36.4622 0 -16.2975
39.8413 0 47.8634
2.00144 0 -23.6356
35.1083 0 -37.3514
11.7868 0 -2.25734
17.181 0 3.9249
-11.8349 0 1.78476
14.1484 0 -23.3491
13.4525 0 -4.58215
8.15748 0 21.9347
-25.8723 0 -71.4382
-5.01859 0 2.89065
5.18031 0 -3.64244
-0.358057 0 -7.42408
5.4049 0 12.4602
-16.9381 0 11.5692
34.0121 0 -31.5942
-11.1075 0 6.59055
-24.9982 0 -8.14536
-63.4147 0 -104.808
-27.553 0 72.6855
-14.9237 0 3.88645
-21.0106 0 12.794
10.8662 0 21.4595
-6.96503 0 -25.4069
-39.9227 0 4.08118
-3.8511 0 26.1357
-21.8885 0 -11.3053
0.646693 0 -20.4627
-19.4203 0 20.3406
-3.8813 0 34.1826
-29.1141 0 -1.58791
15.2972 0 27.4762
-2.37753 0 -5.32206
-82.0686 0 -90.416
21.1687 0 -13.7292
9.57874 0 42.4423
17.1968 0 8.71213
-77.5808 0 -77.9403
-16.0609 0 8.86961
-10.1026 0 -3.39915
-33.8646 0 -2.23004
-10.3997 0 -1.23987
20.4282 0 -49.1911
-3.29795 0 -36.3081
8.55725 0 64.6817
-90.1684 0 -29.3745
61.6407 0 27.2038
-0.908357 0 -7.36554
24.0212 0 56.2441
15.5066 0 -5.91887
-6.8886 0 -103.227
-15.8624 0 11.2191
0.790122 0 64.5189
-21.1765 0 11.5527
-13.4626 0 34.6445
42.0175 0 -64.4911
-6.40578 0 2.76073
0.498945 0 -21.8674
-4.75532 0 -25.5671
71.6345 0 13.7122
5.91422 0 -9.53203
-14.9576 0 9.95466
1.31447 0 8.17114
-5.85183 0 -51.5604
12.5021 0 5.26091
-14.5818 0 16.9151
7.09116 0 -36.5089
-2.92555 0 -3.61779
6.56518 0 -3.93601
-26.337 0 -37.0309
-12.8346 0 -7.80732
1.86249 0 15.8831
17.8666 0 8.72931
-45.0709 0 -51.9872
4.28921 0 4.289
-3.97065 0 0.479094
-1.22566 0 10.731
41.244 0 -47.0861
46.6698 0 53.4674
4.60669 0 15.1183
19.0869 0 12.6912
-10.4362 0 -14.2063
15.8815 0 2.25438
-11.0091 0 7.89586
7.39323 0 11.4673
33.1647 0 -18.4481
19.4007 0 7.31507
19.0443 0 3.14332
-0.519451 0 2.98851
-52.3224 0 -11.8474
-16.4091 0 -1.63211
4.11392 0 -17.079
36.2031 0 63.6095
3.46287 0 31.1886
-20.704 0 13.18
15.5887 0 -16.3036
-12.3239 0 5.87456
96.1506 0 56.1197
-33.6978 0 4.40431
22.361 0 14.599
19.9098 0 -45.2945
33.35 0 18.51
-39.2964 0 15.1727
20.0116 0 11.2887
-37.12 0 -35.3862
1.90915 0 5.20532
-0.741111 0 -11.9945
-0.217782 0 24.741
26.0215 0 25.31
-1.35892 0 -9.67651
-16.8152 0 25.1659
-2.19261 0 -0.890666
15.4433 0 -29.1753
2.08008 0 -12.1093
3.27049 0 -9.13168
-5.13675 0 16.7601
-11.9971 0 -13.3042
-2.70775 0 6.57497
0.750786 0 -7.89606
-1.09746 0 12.9359
-18.7308 0 -18.5021
7.78164 0 -11.6798
-5.25026 0 -0.0779059
-1.13879 0 0.912436
10.0636 0 0.271919
43.1754 0 -8.06107
-18.7246 0 9.5729
14.7116 0 34.7998
-36.2735 0 121.897
13.7104 0 71.6092
11.6494 0 -51.2751
-17.4425 0 36.9901
-2.7254 0 -0.149624
-27.5567 0 -7.37047
66.8189 0 62.6914
-4.17528 0 68.7266
-14.0192 0 -13.4273
31.4029 0 -10.4205
5.36262 0 -4.32599
-18.9463 0 -27.1258
1.1872 0 6.22586
-15.3831 0 -20.8581
-1.46249 0 15.3981
54.9693 0 -18.676
-36.2493 0 35.3908
5.7928 0 -5.54732
29.6499 0 -18.4109
38.9417 0 22.7128
2.99122 0 7.02838
52.7402 0 3.12971
74.8265 0 3.21629
-30.3974 0 -5.11984
33.9443 0 -101.871
33.8244 0 18.0566
14.6758 0 12.3781
-6.2863 0 -29.3197
1.49942 0 -4.36557
11.1439 0 -5.49565
1.30101 0 0.513014
-54.1889 0 -7.05847
28.9857 0 4.78018
-17.9316 0 -6.31582
-23.9681 0 11.3574
0.570363 0 -9.01333
18.0988 0 35.3342
9.69037 0 -23.9175
80.2839 0 42.5604
-9.07447 0 -8.04077
-29.3471 0 16.2529
-17.056 0 25.0792
-20.0083 0 -64.4965
16.5556 0 32.4036
-36.0296 0 -63.0188
25.5209 0 -0.855376
0.824174 0 -19.2144
-11.8536 0 -0.908617
-27.3106 0 9.93855
-20.5302 0 -8.73304
29.0326 0 18.7285
-24.5102 0 -14.7323
-9.3956 0 -11.0935
12.069 0 32.9541
9.12178 0 -5.17611
-32.5617 0 -14.271
-4.74689 0 -8.49253
11.6792 0 13.2993
-13.3554 0 14.5348
-9.2395 0 -46.8484
50.9107 0 -128.544
-0.352144 0 9.44514
-43.039 0 54.2848
-49.0628 0 2.24177
6.18676 0 -16.4358
-9.3691 0 48.0171
-23.1782 0 -40.4611
-1.81139 0 -6.81144
30.9539 0 -58.7046
-14.588 0 -13.179
-27.8348 0 21.7876
-6.23482 0 26.4055
1.63959 0 7.98001
-50.4236 0 -40.191
22.7977 0 -4.08731
-6.692 0 -19.966
5.22087 0 22.0691
-35.8966 0 -51.4432
-17.6565 0 7.88473
-39.3098 0 -4.56426
123.752 0 61.0941
-103.517 0 -76.96
39.1477 0 -8.5615
0.522124 0 8.95329
-40.828 0 65.9013
-17.1039 0 6.84867
103.845 0 -150.58
15.6307 0 35.4217
7.3411 0 6.48716
-26.2377 0 -7.10359
-14.3717 0 29.2551
17.8927 0 -12.2802
17.4827 0 22.752
-1.88861 0 -31.2839
7.03339 0 -1.10447
-1.11534 0 -6.0666
-44.7229 0 -17.6343
30.0866 0 45.1123
-18.9303 0 62.8533
9.49381 0 23.0553
12.0215 0 -68.8195
26.1517 0 -65.1268
-9.52613 0 1.90225
88.2108 0 17.3054
6.47471 0 42.7043
4.07399 0 7.86027
5.11318 0 78.2732
22.424 0 7.21928
-16.3001 0 20.0288
26.2945 0 -12.1453
25.1788 0 3.48739
-34.3264 0 -0.910528
0.251714 0 13.5241
1.82291 0 -0.895945
-11.6445 0 66.1733
3.03025 0 -2.41518
-16.3414 0 9.36762
2.78169 0 -21.8543
16.8007 0 9.8017
1.83961 0 -10.028
-2.86521 0 -31.0843
-11.4005 0 -1.23308
-12.9772 0 -16.2919
48.9137 0 3.09001
1.67649 0 7.39036
-21.166 0 -6.88726
40.4791 0 13.9075
-3.3959 0 35.4816
15.2297 0 -2.21841
4.84822 0 -9.7638
-10.4247 0 -1.23661
34.1003 0 -35.0305
-5.7837 0 -13.8434
-4.6367 0 -8.96366
-0.64316 0 11.5329
11.6762 0 21.7644
-31.8391 0 34.0773
-6.39394 0 -4.87036
1.15252 0 -9.7768
-6.18946 0 24.2954
72.4698 0 -49.8949
-5.86315 0 6.25866
-24.9062 0 -60.6643
-2.29832 0 -3.0953
3.01426 0 -22.3275
-101.934 0 141.545
2.69002 0 2.0333
-39.9758 0 37.7482
17.2566 0 13.5853
-6.94167 0 -74.6144
13.7183 0 -42.929
11.5152 0 -4.3592
-15.932 0 -10.0276
-24.5247 0 36.6418
-61.0525 0 1.42456
56.2954 0 -28.2649
6.95203 0 -15.715
6.36098 0 5.89529
7.27875 0 7.53996
-99.3856 0 21.9872
-42.5018 0 43.395
16.634 0 -57.8354
-18.1648 0 -42.6169
-6.90693 0 -37.9823
2.75827 0 8.27582
6.07812 0 17.3893
5.82271 0 -13.2872
2.88989 0 26.7691
9.65012 0 -24.4227
3.65216 0 4.48811
8.47524 0 18.5308
-12.6291 0 -18.4963
-7.66477 0 -1.14309
32.5532 0 -7.87006
35.6371 0 10.196
1.93938 0 -6.20957
21.7484 0 16.6864
-3.33228 0 1.34875
-8.08319 0 -15.1947
11.33 0 -6.57854
5.76244 0 -75.4414
-30.1109 0 -13.256
-4.71019 0 -10.1616
0.978164 0 3.83561
10.7898 0 -4.62099
-42.6493 0 -41.5309
9.82798 0 -10.1144
-12.2149 0 -0.630404
3.13596 0 5.87227
34.4389 0 15.0984
-4.07497 0 10.007
9.68581 0 -1.27449
5.87738 0 -16.3354
3.88578 0 -2.10709
-47.2401 0 22.6859
5.96895 0 -20.6852
20.7447 0 4.8495
9.46018 0 12.8741
-15.874 0 8.33334
7.98682 0 2.99809
5.11578 0 -6.90249
8.438 0 42.5722
-3.64152 0 -8.86608
-83.1244 0 -30.2538
92.5718 0 12.169
3.94386 0 19.1675
-9.31107 0 6.35852
-30.088 0 -48.2983
6.72739 0 -15.3895
21.2624 0 -7.45587
12.007 0 -30.2101
-6.68744 0 -2.31139
-18.9819 0 -3.14934
1.62954 0 35.3561
-50.358 0 -24.91
15.0288 0 11.3799
5.58511 0 -6.76936
-7.36455 0 14.6921
11.9315 0 -3.09795
4.19254 0 2.74528
-2.97422 0 -5.64747
17.4048 0 47.2755
-57.6455 0 17.3493
23.7987 0 2.27238
26.6151 0 -11.0918
-3.96471 0 4.9422
40.5724 0 -78.0744
-29.7723 0 -43.9805
-24.32 0 0.823512
1.14713 0 5.02385
-51.8406 0 -15.5389
-18.4319 0 -5.43291
-8.79975 0 0.29837
19.3726 0 -0.471886
5.09639 0 3.04986
-33.8428 0 8.44277
-30.4632 0 -7.65254
3.67265 0 12.9357
3.3431 0 -14.1536
6.91891 0 -39.2293
6.87336 0 54.3184
46.7674 0 22.3002
-6.44637 0 -7.74753
-8.44483 0 0.966685
41.4217 0 8.66087
-15.851 0 -24.8612
19.2794 0 11.5849
-4.87305 0 4.40295
-3.81699 0 7.19216
-27.1899 0 3.0843
-9.06688 0 7.7346
0.819051 0 3.41632
8.61821 0 -24.8576
-15.7209 0 -82.1156
-5.00022 0 17.7547
7.91394 0 -2.32149
-40.6046 0 42.7721
-11.7494 0 0.537687
-77.0838 0 0.263384
-1.76944 0 33.4235
5.53264 0 -11.2856
-10.0959 0 -8.74107
34.6201 0 58.0439
5.64088 0 -4.58566
-13.2031 0 54.5548
4.86208 0 55.4044
36.1701 0 49.1976
0.0336576 0 32.036
-13.3805 0 21.5696
-11.8101 0 6.00363
3.28734 0 -10.6138
6.08346 0 -7.21545
-7.08114 0 0.282776
33.2352 0 -12.5464
-18.8618 0 -71.6987
11.7582 0 1.39685
7.4055 0 43.4385
-4.06694 0 3.39679
13.5893 0 -0.557186
7.33401 0 -16.2626
-41.2164 0 -26.7968
7.51139 0 19.9819
11.2119 0 60.0618
-61.4994 0 -57.0387
49.5139 0 19.2292
-4.97084 0 -21.5583
4.76082 0 12.5615
66.1374 0 22.3466
-12.0598 0 12.4593
-11.2696 0 -138.33
31.0104 0 -2.76188
30.6791 0 -12.2147
2.86435 0 -19.1364
7.44441 0 -12.3635
1.06004 0 20.7726
-45.3897 0 -36.1877
-13.9544 0 3.33565
-1.83007 0 5.6314
12.7888 0 19.4657
-23.6578 0 11.3424
-26.7305 0 -37.8371
-4.50112 0 -6.36655
0.635444 0 -6.40702
-1.86676 0 -16.1278
-13.0782 0 4.85888
-1.08894 0 -1.51034
11.3187 0 -9.26703
-78.3429 0 -168.517
-12.3173 0 1.14436
7.01174 0 -22.097
0.232724 0 -4.03357
6.48707 0 32.3613
-15.1343 0 0.183273
9.73111 0 63.7047
-11.4748 0 5.68317
-7.21169 0 -10.9864
40.749 0 -65.8218
13.7281 0 11.6936
74.5638 0 -89.6204
-8.11534 0 -11.673
3.64126 0 3.30707
-12.9849 0 5.63063
3.79302 0 -4.64206
10.8639 0 9.34308
34.0696 0 -72.7857
-11.9932 0 -5.12699
14.325 0 -27.057
-0.369996 0 -12.0045
-21.7125 0 6.18898
-104.269 0 -2.49229
118.362 0 -21.999
7.57023 0 0.343727
-11.0986 0 12.6985
-8.9244 0 1.82748
149.844 0 -53.9571
31.1275 0 -2.62762
-89.767 0 83.6275
-49.3798 0 0.573371
31.6767 0 15.0338
-51.3596 0 -5.35507
32.9487 0 -6.21365
78.1637 0 -37.1583
16.0438 0 8.43563
-59.0498 0 37.5077
61.1507 0 60.7488
-13.6756 0 5.18118
-66.5918 0 44.7488
-107.769 0 2.48862
-42.5815 0 -52.0276
11.971 0 149.137
0.607327 0 18.1536
2.41216 0 20.209
44.1478 0 29.3393
-26.5026 0 0.875829
13.5785 0 8.35056
-122.374 0 27.7607
47.1987 0 14.703
33.3288 0 13.7422
8.64662 0 -4.79674
-9.95328 0 7.66927
-4.10511 0 21.4251
3.84256 0 79.1718
1.4995 0 0.604982
0.125263 0 -2.47009
12.1718 0 2.78686
56.457 0 66.0277
10.3933 0 -14.0243
13.4544 0 8.2192
-29.6742 0 139.915
-4.25859 0 -14.6125
6.27476 0 0.715938
-5.71792 0 2.55903
-2.96784 0 15.1173
-9.4723 0 -9.89853
13.244 0 -15.2461
4.62122 0 7.07528
31.3089 0 -28.8355
9.10171 0 14.7355
69.871 0 -41.266
21.6363 0 -0.0422067
2.9359 0 -10.8821
0.571112 0 0.986857
-34.6255 0 -51.9403
-49.1739 0 31.6434
33.2376 0 -8.00757
14.9442 0 -4.00147
-24.978 0 9.44572
-16.0682 0 7.49719
44.7355 0 -10.2705
5.26774 0 20.0399
-42.0293 0 0.175936
6.41951 0 18.2286
-8.94114 0 18.9232
-10.7799 0 5.35452
-37.6645 0 3.6742
-75.336 0 -0.0211341
8.99771 0 12.352
8.70879 0 58.8801
47.6207 0 -26.9469
-45.1924 0 -62.304
11.4224 0 -8.94004
-3.88357 0 -2.07278
-5.73747 0 20.4243
-4.50094 0 1.32268
-42.4534 0 -53.3772
5.33104 0 -0.949879
20.3643 0 49.4415
4.94223 0 19.1161
2.23993 0 -18.0785
11.6535 0 -0.147445
-6.21536 0 23.4914
6.60178 0 -10.6221
-20.8983 0 4.70121
9.88125 0 3.71077
20.6236 0 8.74055
16.0347 0 -14.1316
-39.1722 0 -9.46029
4.21485 0 0.860724
25.0093 0 7.15774
-10.6305 0 -6.00533
-3.74356 0 -2.82414
-9.66506 0 16.7418
-17.6261 0 -1.61484
1.34924 0 12.9474
-35.1856 0 -30.2023
-2.23172 0 12.8394
3.93342 0 -18.2433
11.3788 0 -24.4793
103.546 0 26.723
-10.2514 0 -2.37461
15.1066 0 23.1077
2.35103 0 -1.14384
-50.9086 0 -40.3331
20.6766 0 58.5732
-34.6677 0 64.9232
2.91337 0 -44.5679
-37.9793 0 32.9141
0.127256 0 8.84222
-7.72171 0 10.7555
-4.02107 0 -9.41173
0.901898 0 -12.2032
-8.81271 0 54.9413
25.601 0 -16.4572
12.9102 0 2.06732
14.4848 0 3.96787
-26.2437 0 7.02857
-4.95999 0 25.975
0.274014 0 14.4617
-40.3851 0 48.0787
76.4871 0 -56.3219
-2.36227 0 10.4871
5.79473 0 1.06984
-15.4062 0 -8.1194
-9.37262 0 -13.817
7.261 0 3.3263
15.2306 0 -31.2193
18.7476 0 15.0744
41.4833 0 15.5653
-5.84363 0 -8.97918
-19.4696 0 28.8382
42.1059 0 -44.0763
2.24823 0 -6.78792
-33.4222 0 -37.6071
-21.1097 0 -66.055
-3.35374 0 -2.22363
53.4062 0 -29.5395
14.0568 0 -13.6503
12.689 0 5.3654
-1.51322 0 15.1453
-18.1399 0 -7.91674
101.355 0 19.6862
45.7969 0 51.0627
7.97579 0 13.3484
11.1567 0 -8.75424
-8.69334 0 -14.0279
-18.6335 0 -2.77252
20.0429 0 -7.65772
148.877 0 -11.3407
23.3437 0 26.0156
93.5207 0 -10.0386
-16.2685 0 2.58385
-3.63089 0 14.6878
-2.40908 0 33.3407
10.0393 0 -39.8765
-9.78354 0 -5.9477
44.9691 0 36.15
-19.3213 0 -13.7735
23.0693 0 36.9038
-17.4898 0 -10.118
11.5781 0 11.4817
5.66972 0 -21.7871
-23.2357 0 -25.5455
17.3209 0 -0.0290142
50.1539 0 -70.1779
-7.92273 0 17.6633
-15.6987 0 4.59075
-6.82696 0 0.574937
-7.32541 0 -4.82414
28.8326 0 -39.5568
-49.8939 0 -18.4534
13.7039 0 18.1076
-10.1498 0 0.921566
-52.9691 0 7.67266
-13.9345 0 -30.098
13.3586 0 -27.3672
21.7757 0 -40.3681
1.6809 0 5.62915