# vtk DataFile Version 3.0
SiWiRVisFile
ASCII
DATASET UNSTRUCTURED_GRID
POINTS 1600 DOUBLE
78.7362 100 75.6716
79.7821 100 76.0282
80.9355 100 76.3043
82.6022 100 75.833
83.6337 100 76.1749
84.6853 100 76.2554
85.7683 100 76.5009
86.8681 100 76.6964
87.9161 100 76.9002
89.0544 100 76.9908
90.1551 100 77.2473
91.2377 100 77.4515
91.8122 100 76.517
92.8516 100 76.0447
93.8589 100 75.2653
95.3204 100 74.7195
96.5251 100 74.1356
97.5826 100 74.533
98.2546 100 73.3466
100.099 100 74.1279
103.567 100 66.5948
103.122 100 69.2511
103.31 100 67.938
104.703 100 67.9648
105.445 100 67.144
106.582 100 66.9834
108.562 100 67.4173
109.614 100 66.951
110.793 100 66.5945
111.694 100 66.0415
112.798 100 66.0415
113.699 100 66.5945
114.878 100 66.951
115.93 100 67.4173
117.911 100 66.9834
119.047 100 67.144
119.79 100 67.9648
121.182 100 67.938
121.37 100 69.2511
120.925 100 66.5948
124.393 100 74.1279
126.238 100 73.3466
126.91 100 74.533
127.967 100 74.1356
129.172 100 74.7195
130.634 100 75.2653
131.641 100 76.0447
132.68 100 76.517
133.255 100 77.4515
134.337 100 77.2473
135.438 100 76.9908
136.576 100 76.9002
137.624 100 76.6964
138.724 100 76.5009
139.807 100 76.2554
140.859 100 76.1749
141.89 100 75.833
143.557 100 76.3043
144.71 100 76.0282
145.756 100 75.6716
79.001 100 76.8022
80.0986 100 77.1141
81.9508 100 76.6901
82.9227 100 77.0324
83.9824 100 77.2789
85.0599 100 77.3336
86.1449 100 77.5326
87.2301 100 77.7645
88.347 100 77.9612
89.4081 100 78.1312
90.5116 100 78.4446
91.5774 100 78.4124
92.3792 100 77.6567
93.4752 100 76.9709
94.5938 100 76.6312
95.4069 100 75.8348
96.3795 100 75.3041
98.9139 100 74.2033
99.7403 100 75.3219
101.187 100 74.187
102.078 100 68.8742
101.58 100 72.6993
103.898 100 71.7393
107.147 100 69.7612
105.742 100 68.4503
106.766 100 68.0982
107.868 100 68.2305
109.374 100 68.2068
110.337 100 67.7651
111.714 100 67.1629
112.779 100 67.1629
114.156 100 67.7651
115.119 100 68.2068
116.624 100 68.2305
117.726 100 68.0982
118.75 100 68.4503
117.346 100 69.7612
120.595 100 71.7393
122.912 100 72.6993
122.414 100 68.8742
123.306 100 74.187
124.752 100 75.3219
125.578 100 74.2033
128.113 100 75.3041
129.085 100 75.8348
129.899 100 76.6312
131.017 100 76.9709
132.113 100 77.6567
132.915 100 78.4124
133.981 100 78.4446
135.084 100 78.1312
136.145 100 77.9612
137.262 100 77.7645
138.347 100 77.5326
139.433 100 77.3336
140.51 100 77.2789
141.57 100 77.0324
142.542 100 76.6901
144.394 100 77.1141
145.491 100 76.8022
79.298 100 77.8887
80.3371 100 78.2126
81.1891 100 77.4048
82.2154 100 77.7446
83.2537 100 78.1092
84.2677 100 78.4351
85.3488 100 78.3773
86.4886 100 78.5607
87.6457 100 78.7693
88.7305 100 78.9907
89.7829 100 79.2331
90.8375 100 79.5503
92.1036 100 79.4192
92.831 100 78.6396
94.641 100 77.8645
95.5771 100 77.2892
96.2771 100 76.4128
97.6205 100 75.8167
98.7213 100 75.7093
101.07 100 75.2741
102.155 100 73.5984
102.912 100 72.8927
104.797 100 73.0994
105.848 100 72.808
107.172 100 72.4123
108.341 100 73.2128
109.308 100 73.5856
109.408 100 72.155
110.867 100 69.2438
111.267 100 68.2488
113.225 100 68.2488
113.625 100 69.2438
115.084 100 72.155
115.185 100 73.5856
116.151 100 73.2128
117.321 100 72.4123
118.644 100 72.808
119.696 100 73.0994
121.58 100 72.8927
122.338 100 73.5984
123.423 100 75.2741
125.771 100 75.7093
126.872 100 75.8167
128.215 100 76.4128
128.915 100 77.2892
129.851 100 77.8645
131.661 100 78.6396
132.389 100 79.4192
133.655 100 79.5503
134.709 100 79.2331
135.762 100 78.9907
136.847 100 78.7693
138.004 100 78.5607
139.144 100 78.3773
140.225 100 78.4351
141.239 100 78.1092
142.277 100 77.7446
143.303 100 77.4048
144.155 100 78.2126
145.194 100 77.8887
79.4815 100 78.9644
80.5394 100 79.2981
81.3841 100 78.4594
82.4995 100 78.8651
83.532 100 79.1916
84.6945 100 79.4078
85.782 100 79.3944
86.9716 100 79.635
88.1022 100 79.8339
89.1405 100 80.2024
90.1764 100 80.3885
91.2449 100 80.5564
92.4039 100 80.4694
93.1631 100 79.7871
93.8921 100 78.787
95.5352 100 78.5873
96.5004 100 77.8547
97.1102 100 76.931
98.3052 100 76.7768
99.349 100 76.724
100.588 100 76.3808
102.1 100 74.7913
103.377 100 74.0922
104.683 100 74.1964
105.775 100 73.995
107.073 100 73.7198
108.256 100 74.2804
110.038 100 74.6012
110.369 100 72.5645
111.65 100 69.8858
112.842 100 69.8858
114.123 100 72.5645
114.455 100 74.6012
116.237 100 74.2804
117.419 100 73.7198
118.717 100 73.995
119.81 100 74.1964
121.115 100 74.0922
122.392 100 74.7913
123.904 100 76.3808
125.143 100 76.724
126.187 100 76.7768
127.382 100 76.931
127.992 100 77.8547
128.957 100 78.5873
130.6 100 78.787
131.329 100 79.7871
132.089 100 80.4694
133.247 100 80.5564
134.316 100 80.3885
135.352 100 80.2024
136.39 100 79.8339
137.521 100 79.635
138.71 100 79.3944
139.798 100 79.4078
140.96 100 79.1916
141.993 100 78.8651
143.108 100 78.4594
143.953 100 79.2981
145.011 100 78.9644
79.5351 100 80.0089
80.6369 100 80.3199
81.6283 100 79.5834
82.6887 100 80.1793
84.0247 100 80.1965
85.1272 100 80.4619
86.2569 100 80.4268
87.365 100 80.5941
88.3486 100 81.0827
89.5642 100 81.3479
90.7118 100 81.5475
91.7579 100 81.3955
93.3254 100 81.0337
94.0257 100 80.3096
94.753 100 79.4066
96.1864 100 79.5523
97.2766 100 78.7728
97.9856 100 77.77
99.0478 100 77.7331
100.228 100 77.5789
101.731 100 76.3051
102.698 100 75.8798
104.372 100 75.5711
105.364 100 75.0994
106.775 100 74.6723
107.833 100 75.2185
109.067 100 75.3478
110.217 100 75.8092
110.425 100 73.5788
111.758 100 73.0409
112.734 100 73.0409
114.067 100 73.5788
114.276 100 75.8092
115.426 100 75.3478
116.66 100 75.2185
117.718 100 74.6723
119.128 100 75.0994
120.12 100 75.5711
121.795 100 75.8798
122.762 100 76.3051
124.265 100 77.5789
125.445 100 77.7331
126.507 100 77.77
127.216 100 78.7728
128.306 100 79.5523
129.739 100 79.4066
130.467 100 80.3096
131.167 100 81.0337
132.734 100 81.3955
133.781 100 81.5475
134.928 100 81.3479
136.144 100 81.0827
137.127 100 80.5941
138.235 100 80.4268
139.365 100 80.4619
140.468 100 80.1965
141.804 100 80.1793
142.864 100 79.5834
143.856 100 80.3199
144.957 100 80.0089
79.6961 100 81.0649
80.7777 100 81.474
81.6251 100 80.706
82.4826 100 81.2622
83.5767 100 81.2006
84.6291 100 81.3655
85.7805 100 81.4196
86.85 100 81.5247
88.0208 100 82.0428
89.0056 100 82.3121
90.0365 100 82.3829
91.2562 100 82.5178
92.3916 100 82.2543
93.3862 100 82.0509
94.368 100 81.6397
95.0965 100 80.4403
96.6378 100 80.5766
97.5879 100 79.7726
98.3029 100 78.9133
100.006 100 78.663
101.455 100 77.3081
102.681 100 77.0246
103.757 100 76.5109
104.825 100 76.6191
105.924 100 76.179
107.013 100 75.9894
108.241 100 76.1855
109.323 100 76.4222
111.372 100 75.9184
111.252 100 74.6718
113.241 100 74.6718
113.12 100 75.9184
115.169 100 76.4222
116.251 100 76.1855
117.479 100 75.9894
118.569 100 76.179
119.667 100 76.6191
120.735 100 76.5109
121.811 100 77.0246
123.038 100 77.3081
124.486 100 78.663
126.19 100 78.9133
126.905 100 79.7726
127.855 100 80.5766
129.396 100 80.4403
130.124 100 81.6397
131.106 100 82.0509
132.101 100 82.2543
133.236 100 82.5178
134.456 100 82.3829
135.487 100 82.3121
136.472 100 82.0428
137.642 100 81.5247
138.712 100 81.4196
139.863 100 81.3655
140.916 100 81.2006
142.01 100 81.2622
142.867 100 80.706
143.715 100 81.474
144.796 100 81.0649
79.686 100 82.1804
80.7782 100 82.6005
81.7063 100 81.9748
82.7656 100 82.3362
84.0405 100 82.1793
85.1964 100 82.3338
86.3253 100 82.3989
87.2747 100 82.926
88.3384 100 83.1057
89.5037 100 83.3584
90.6076 100 83.3794
91.9677 100 83.3359
93.0764 100 83.148
94.3741 100 82.6777
95.2557 100 82.1465
95.747 100 81.2395
97.6804 100 81.2526
98.4652 100 80.4419
99.2633 100 79.3922
101.088 100 78.4571
102.203 100 78.0571
103.656 100 77.7866
104.742 100 77.7395
105.807 100 77.3995
106.84 100 77.4086
108.12 100 77.2779
109.528 100 77.45
110.551 100 76.7734
110.525 100 77.9397
111.411 100 77.2834
113.081 100 77.2834
113.968 100 77.9397
113.941 100 76.7734
114.964 100 77.45
116.373 100 77.2779
117.652 100 77.4086
118.685 100 77.3996
119.751 100 77.7395
120.836 100 77.7866
122.29 100 78.0571
123.405 100 78.4571
125.229 100 79.3922
126.027 100 80.4419
126.812 100 81.2526
128.745 100 81.2395
129.237 100 82.1465
130.118 100 82.6777
131.416 100 83.148
132.525 100 83.3359
133.885 100 83.3794
134.989 100 83.3584
136.154 100 83.1057
137.218 100 82.926
138.167 100 82.3989
139.296 100 82.3338
140.452 100 82.1793
141.727 100 82.3362
142.786 100 81.9748
143.714 100 82.6005
144.806 100 82.1804
79.9716 100 83.4237
80.9835 100 83.9117
81.7832 100 83.0398
82.6984 100 83.6429
83.5624 100 83.0767
84.6197 100 83.1307
85.6137 100 83.4392
86.5613 100 83.8719
87.598 100 83.889
88.7173 100 84.1579
89.8561 100 84.344
90.9352 100 84.3423
91.944 100 84.4874
92.8667 100 84.1416
93.8908 100 83.7346
95.1325 100 83.471
96.716 100 81.7832
99.0135 100 81.4179
99.4805 100 80.4567
100.294 100 79.7393
102.314 100 79.8613
102.883 100 78.8818
104.034 100 79.0597
105.375 100 78.7202
106.525 100 78.5842
107.611 100 78.1872
108.593 100 79.1673
109.773 100 78.6291
110.736 100 79.1259
111.544 100 78.3295
112.948 100 78.3295
113.757 100 79.1259
114.72 100 78.6291
115.9 100 79.1673
116.881 100 78.1872
117.967 100 78.5842
119.117 100 78.7202
120.458 100 79.0597
121.61 100 78.8818
122.179 100 79.8613
124.199 100 79.7393
125.012 100 80.4567
125.479 100 81.4179
127.776 100 81.7832
129.36 100 83.471
130.602 100 83.7346
131.626 100 84.1416
132.548 100 84.4874
133.557 100 84.3423
134.636 100 84.344
135.775 100 84.1579
136.894 100 83.889
137.931 100 83.8719
138.879 100 83.4392
139.873 100 83.1307
140.93 100 83.0767
141.794 100 83.6429
142.709 100 83.0398
143.509 100 83.9117
144.521 100 83.4237
80.004 100 84.5311
80.9898 100 85.1545
81.9233 100 84.3985
82.9412 100 84.7393
83.8188 100 84.0719
84.9614 100 84.2943
85.9473 100 84.8191
86.9949 100 84.8543
88.0153 100 85.0038
89.0701 100 85.1379
90.0657 100 85.4504
91.2714 100 85.3213
92.4794 100 85.3119
93.5935 100 85.0169
94.6843 100 84.5301
96.1896 100 83.9513
96.2066 100 82.864
97.5508 100 82.6612
99.9373 100 81.9777
100.677 100 80.8284
102.83 100 80.8889
[...]
POINT_DATA 1600
SCALARS mass double
LOOKUP_TABLE default
1
1
1
1
1
1
1
1
1
1
1
1
1
1
1
1
1
1
1
1
1
1
1
1
1
1
1
1
1
1
1
1
1
1
1
1
1
1
1
1
1
1
1
1
1
1
1
1
1
1
1
1
1
1
1
1
1
1
1
1
1
1
1
1
1
1
1
1
1
1
1
1
1
1
1
1
1
1
1
1
1
1
1
1
1
1
1
1
1
1
1
1
1
1
1
1
1
1
1
1
1
1
1
1
1
1
1
1
1
1
1
1
1
1
1
1
1
1
1
1
1
1
1
1
1
1
1
1
1
1
1
1
1
1
1
1
1
1
1
1
1
1
1
1
1
1
1
1
1
1
1
1
1
1
1
1
1
1
1
1
1
1
1
1
1
1
1
1
1
1
1
1
1
1
1
1
1
1
1
1
1
1
1
1
1
1
1
1
1
1
1
1
1
1
1
1
1
1
1
1
1
1
1
1
1
1
1
1
1
1
1
1
1
1
1
1
1
1
1
1
1
1
1
1
1
1
1
1
1
1
1
1
1
1
1
1
1
1
1
1
1
1
1
1
1
1
1
1
1
1
1
1
1
1
1
1
1
1
1
1
1
1
1
1
1
1
1
1
1
1
1
1
1
1
1
1
1
1
1
1
1
1
1
1
1
1
1
1
1
1
1
1
1
1
1
1
1
1
1
1
1
1
1
1
1
1
1
1
1
1
1
1
1
1
1
1
1
1
1
1
1
1
1
1
1
1
1
1
1
1
1
1
1
1
1
1
1
1
1
1
1
1
1
1
1
1
1
1
1
1
1
1
1
1
1
1
1
1
1
1
1
1
1
1
1
1
1
1
1
1
1
1
1
1
1
1
1
1
1
1
1
1
1
1
1
1
1
1
1
1
1
1
1
1
1
1
1
1
1
1
1
1
1
1
1
1
1
1
1
1
1
1
1
1
1
1
1
1
1
1
1
1
1
1
1
1
1
1
1
1
1
1
1
1
1
1
1
1
1
1
1
1
1
1
1
1
1
1
1
1
1
1
1
1
1
1
1
1
1
1
1
1
1
1
1
1
1
1
1
1
1
1
1
1
1
1
1
1
1
1
1
1
1
1
1
1
1
1
1
1
1
1
1
1
1
1
1
1
1
1
1
1
1
1
1
1
1
1
1
1
1
1
1
1
1
1
1
1
1
1
1
1
1
1
1
1
1
1
1
1
1
1
1
1
1
1
1
1
1
1
1
1
1
1
1
1
1
1
1
1
1
1
1
1
1
1
1
1
1
1
1
1
1
1
1
1
1
1
1
1
1
1
1
1
1
1
1
1
1
1
1
1
1
1
1
1
1
1
1
1
1
1
1
1
1
1
1
1
1
1
1
1
1
1
1
1
1
1
1
1
1
1
1
1
1
1
1
1
1
1
1
1
1
1
1
1
1
1
1
1
1
1
1
1
1
1
1
1
1
1
1
1
1
1
1
1
1
1
1
1
1
1
1
1
1
1
1
1
1
1
1
1
1
1
1
1
1
1
1
1
1
1
1
1
1
1
1
1
1
1
1
1
1
1
1
1
1
1
1
1
1
1
1
1
1
1
1
1
1
1
1
1
1
1
1
1
1
1
1
1
1
1
1
1
1
1
1
1
1
1
1
1
1
1
1
1
1
1
1
1
1
1
1
1
1
1
1
1
1
1
1
1
1
1
1
1
1
1
1
1
1
1
1
1
1
1
1
1
1
1
1
1
1
1
1
1
1
1
1
1
1
1
1
1
1
1
1
1
1
1
1
1
1
1
1
1
1
1
1
1
1
1
1
1
1
1
1
1
1
1
1
1
1
1
1
1
1
1
1
1
1
1
1
1
1
1
1
1
1
1
1
1
1
1
1
1
1
1
1
1
1
1
1
1
1
1
1
1
1
1
1
1
1
1
1
1
1
1
1
1
1
1
1
1
1
1
1
1
1
1
1
1
1
1
1
1
1
1
1
1
1
1
1
1
1
1
1
1
1
1
1
1
1
1
1
1
1
1
1
1
1
1
1
1
1
1
1
1
1
1
1
1
1
1
1
1
1
1
1
1
1
1
1
1
1
1
1
1
1
1
1
1
1
1
1
1
1
1
1
1
1
1
1
1
1
1
1
1
1
1
1
1
1
1
1
1
1
1
1
1
1
1
1
1
1
1
1
1
1
1
1
1
1
1
1
1
1
1
1
1
1
1
1
1
1
1
1
1
1
1
1
1
1
1
1
1
1
1
1
1
1
1
1
1
1
1
1
1
1
1
1
1
1
1
1
1
1
1
1
1
1
1
1
1
1
1
1
1
1
1
1
1
1
1
1
1
1
1
1
1
1
1
1
1
1
1
1
1
1
1
1
1
1
1
1
1
1
1
1
1
1
1
1
1
1
1
1
1
1
1
1
1
1
1
1
1
1
1
1
1
1
1
1
1
1
1
1
1
1
1
1
1
1
1
1
1
1
1
1
1
1
1
1
1
1
1
1
1
1
1
1
1
1
1
1
1
1
1
1
1
1
1
1
1
1
1
1
1
1
1
1
1
1
1
1
1
1
1
1
1
1
1
1
1
1
1
1
1
1
1
1
1
1
1
1
1
1
1
1
1
1
1
1
1
1
1
1
1
1
1
1
1
1
1
1
1
1
1
1
1
1
1
1
1
1
1
1
1
1
1
1
1
1
1
1
1
1
1
1
1
1
1
1
1
1
1
1
1
1
1
1
1
1
1
1
1
1
1
1
1
1
1
1
1
1
1
1
1
1
1
1
1
1
1
1
1
1
1
1
1
1
1
1
1
1
1
1
1
1
1
1
1
1
1
1
1
1
1
1
1
1
1
1
1
1
1
1
1
1
1
1
1
1
1
1
1
1
1
1
1
1
1
1
1
1
1
1
1
1
1
1
1
1
1
1
1
1
1
1
1
1
1
1
1
1
1
1
1
1
1
1
1
1
1
1
1
1
1
1
1
1
1
1
1
1
1
1
1
1
1
1
1
1
1
1
1
1
1
1
1
1
1
1
1
1
1
1
1
1
1
1
1
1
1
1
1
1
1
1
1
1
1
1
1
1
1
1
1
1
1
1
1
1
1
1
1
1
1
1
1
1
1
1
1
1
1
1
1
1
1
1
1
1
1
1
1
1
1
1
1
1
1
1
1
1
1
1
1
1
1
1
1
1
1
1
1
1
1
1
1
1
1
1
1
1
1
1
1
1
1
1
1
1
1
1
1
1
1
1
1
1
1
1
1
1
1
1
1
1
1
1
1
1
1
1
1
1
1
1
1
1
1
1
1
1
1
1
1
1
1
1
1
1
1
1
1
1
1
1
1
1
1
1
1
1
1
1
1
1
1
1
1
1
1
1
1
1
1
1
1
1
1
1
1
1
1
1
1
1
1
1
1
1
1
1
1
1
1
1
1
1
1
1
1
1
1
1
1
1
1
1
1
1
1
1
1
1
1
1
1
1
1
1
1
1
1
1
1
1
1
1
1
1
1
1
1
1
1
1
1
1
1
1
1
1
1
1
1
1
1
1
1
1
1
1
1
1
1
1
1
1
1
1
1
1
1
1
1
1
1
1
1
1
1
1
1
1
1
1
1
1
1
1
1
1
1
1
1
1
1
VECTORS force double
-2.71288 0 6.80301
22.8161 0 3.13245
-27.2137 0 2.02757
0.138268 0 -5.96993
-20.5321 0 10.0491
27.7193 0 18.4378
5.90732 0 -13.0169
-20.9328 0 -4.68631
35.8479 0 8.49486
-6.67484 0 21.6649
-8.84094 0 17.3121
-24.7922 0 -55.7575
15.0338 0 3.68828
4.38108 0 -3.08551
-0.378282 0 13.2011
15.4209 0 3.23762
-7.085 0 15.8421
7.91583 0 7.91242
-15.552 0 -4.44813
-22.5378 0 15.8184
0.531245 0 10.9743
5.87035 0 -9.55135
5.53619 0 4.25777
-7.54307 0 4.76231
12.8629 0 7.16296
-5.10657 0 6.96914
24.2855 0 -19.787
-4.26193 0 1.18935
-58.4217 0 26.7959
26.3555 0 -14.0495
-26.3555 0 -14.0495
58.4217 0 26.7959
4.26193 0 1.18935
-24.2855 0 -19.787
5.10657 0 6.96914
-12.8629 0 7.16296
7.54307 0 4.76231
-5.53619 0 4.25777
-5.87035 0 -9.55135
-0.531245 0 10.9743
22.5377 0 15.8184
15.552 0 -4.44812
-7.91583 0 7.91242
7.085 0 15.8421
-15.4209 0 3.23763
0.378283 0 13.2011
-4.38108 0 -3.08551
-15.0338 0 3.68828
24.7922 0 -55.7575
8.84094 0 17.3121
6.67484 0 21.6649
-35.8479 0 8.49486
20.9328 0 -4.68631
-5.90732 0 -13.0169
-27.7193 0 18.4378
20.5321 0 10.0491
-0.138267 0 -5.96993
27.2137 0 2.02757
-22.8161 0 3.13245
2.71288 0 6.80301
-0.816217 0 1.52274
6.29721 0 -8.40239
-27.5009 0 -43.8859
121.485 0 -66.3368
5.43419 0 -6.60459
-6.45148 0 -2.96216
-8.2618 0 5.112
6.08401 0 -15.9289
-6.7583 0 -42.5916
36.4657 0 -10.013
-12.5876 0 -30.1946
56.2582 0 94.498
-4.01756 0 -37.7014
2.99916 0 9.44799
2.98847 0 12.4149
-47.5598 0 -13.961
11.9409 0 -17.5559
16.4686 0 28.4676
25.104 0 -9.26195
8.84253 0 -20.1914
0.0820284 0 -4.27831
-6.15153 0 -15.341
-1.26422 0 7.50233
-0.278325 0 -5.86724
-20.1576 0 -8.66336
9.24491 0 -7.72722
-9.68109 0 20.8513
-32.2101 0 1.2113
9.8633 0 -33.7329
-18.8293 0 17.6624
18.8293 0 17.6624
-9.8633 0 -33.7329
32.2101 0 1.2113
9.68109 0 20.8513
-9.24491 0 -7.72722
20.1576 0 -8.66336
0.278325 0 -5.86724
1.26421 0 7.50233
6.15153 0 -15.341
-0.0820285 0 -4.27831
-8.84246 0 -20.1914
-25.1041 0 -9.26195
-16.4686 0 28.4676
-11.941 0 -17.5559
47.5598 0 -13.961
-2.98847 0 12.4149
-2.99916 0 9.44799
4.01756 0 -37.7014
-56.2582 0 94.498
12.5876 0 -30.1946
-36.4657 0 -10.013
6.7583 0 -42.5916
-6.08401 0 -15.9289
8.2618 0 5.112
6.45148 0 -2.96216
-5.43419 0 -6.60459
-121.485 0 -66.3368
27.5009 0 -43.8859
-6.29721 0 -8.40239
0.816217 0 1.52274
-13.9948 0 -15.2731
-3.3869 0 -11.0716
-63.456 0 9.5861
-56.3335 0 96.2893
-6.06994 0 -23.4192
26.5543 0 -61.2572
23.4172 0 13.7344
9.23418 0 25.4249
-16.6349 0 28.4622
11.2851 0 -8.73682
-8.88995 0 28.1323
32.7706 0 -46.726
-39.9269 0 11.706
-5.57028 0 0.150778
-13.5033 0 5.26548
-12.5495 0 -14.2588
-100.773 0 -57.3321
-19.1807 0 6.9579
-3.56315 0 11.6251
-7.83203 0 26.9379
-22.1819 0 80.2412
41.743 0 -33.4232
-7.66856 0 2.61983
22.431 0 9.83231
-2.66881 0 19.298
-61.9852 0 -48.1085
53.7873 0 27.91
-47.461 0 -5.09912
-83.3689 0 -43.4234
51.5541 0 -10.861
-51.5541 0 -10.861
83.369 0 -43.4235
47.4607 0 -5.09899
-53.7875 0 27.91
61.9852 0 -48.1081
2.6688 0 19.2979
-22.431 0 9.8323
7.66856 0 2.61982
-41.743 0 -33.4232
22.1819 0 80.2412
7.83202 0 26.9379
3.56319 0 11.6252
19.1807 0 6.95791
100.773 0 -57.3321
12.5494 0 -14.2588
13.5033 0 5.26547
5.57029 0 0.150785
39.9269 0 11.7061
-32.7706 0 -46.726
8.88995 0 28.1323
-11.2851 0 -8.73682
16.6349 0 28.4622
-9.23418 0 25.4249
-23.4172 0 13.7344
-26.5543 0 -61.2572
6.06994 0 -23.4192
56.3335 0 96.2893
63.456 0 9.5861
3.3869 0 -11.0716
13.9948 0 -15.2731
1.8115 0 -38.1403
-1.3465 0 -63.2312
20.7099 0 49.1681
-44.959 0 13.4754
-7.76735 0 41.7278
35.6843 0 -24.3373
14.822 0 28.3347
-17.9567 0 -76.1677
-12.9919 0 8.21651
-33.969 0 -3.92648
4.45488 0 28.1753
-51.4525 0 -127.74
-78.2235 0 58.017
-19.4061 0 -114.399
-1.43145 0 -10.2286
6.61307 0 -11.816
13.2523 0 23.6901
168.277 0 81.9132
-40.009 0 -46.2943
71.8793 0 -48.1538
-3.02333 0 5.17721
15.6402 0 7.80982
-6.59006 0 -9.20774
-13.8405 0 15.4019
13.0677 0 -4.04149
42.934 0 -125.823
28.5264 0 -37.5299
-8.5099 0 21.1747
40.0492 0 -61.7066
83.466 0 56.1045
-83.4661 0 56.1045
-40.0488 0 -61.7067
8.50989 0 21.1746
-28.5266 0 -37.5306
-42.9338 0 -125.823
-13.0677 0 -4.04147
13.8405 0 15.4019
6.59007 0 -9.20775
-15.6402 0 7.80983
3.02333 0 5.17722
-71.8793 0 -48.1538
40.009 0 -46.2943
-168.277 0 81.9133
-13.2523 0 23.69
-6.61307 0 -11.816
1.43143 0 -10.2286
19.4061 0 -114.399
78.2235 0 58.017
51.4525 0 -127.74
-4.45489 0 28.1753
33.969 0 -3.92648
12.9919 0 8.21651
17.9567 0 -76.1677
-14.822 0 28.3347
-35.6843 0 -24.3373
7.76736 0 41.7278
44.959 0 13.4754
-20.7099 0 49.1681
1.3465 0 -63.2312
-1.8115 0 -38.1403
15.5107 0 14.736
-25.2147 0 64.2999
-0.0963308 0 4.73243
3.83848 0 -19.2105
-37.0336 0 47.6428
37.4185 0 -62.4169
-14.4739 0 20.089
6.42746 0 49.6669
53.2076 0 -89.8044
-3.46861 0 -13.0993
-35.1284 0 -25.7685
103.783 0 121.234
-58.8996 0 -0.10625
144.109 0 -24.9837
22.5785 0 7.87175
-2.5316 0 -7.90591
-80.5349 0 -63.9173
-61.3375 0 57.892
25.6615 0 42.1011
5.35232 0 -17.6281
-21.0091 0 -41.7043
36.9489 0 -14.4598
-5.10177 0 0.871087
20.8424 0 -2.72502
-37.3752 0 128.566
-42.2929 0 17.5963
-4.89732 0 -12.3671
-15.8659 0 -101.055
20.3559 0 81.3831
-200.144 0 3.68528
200.144 0 3.68529
-20.3558 0 81.3832
15.8658 0 -101.054
4.89732 0 -12.3671
42.2933 0 17.5969
37.3751 0 128.566
-20.8425 0 -2.72504
5.10191 0 0.871199
-36.9489 0 -14.4598
21.0091 0 -41.7043
-5.35232 0 -17.628
-25.6616 0 42.1011
61.3376 0 57.8921
80.5349 0 -63.9174
2.53161 0 -7.90591
-22.5785 0 7.87174
-144.109 0 -24.9837
58.8997 0 -0.106189
-103.783 0 121.234
35.1284 0 -25.7685
3.46861 0 -13.0993
-53.2076 0 -89.8044
-6.42746 0 49.6669
14.4739 0 20.089
-37.4185 0 -62.4169
37.0336 0 47.6428
-3.83848 0 -19.2105
0.0963303 0 4.73243
25.2147 0 64.2999
-15.5107 0 14.736
22.1183 0 19.0954
-42.6993 0 -24.4538
-30.287 0 -20.9934
80.549 0 20.6982
-37.4776 0 -12.721
64.3891 0 -37.2783
-27.4343 0 -15.8214
58.7785 0 -43.4388
-122.831 0 58.4687
50.2979 0 -23.7447
61.3429 0 21.2823
3.47753 0 -37.0755
-79.511 0 44.4326
70.8292 0 84.4953
-42.4597 0 -126.916
-13.1275 0 -31.7746
19.9324 0 7.38447
-6.31328 0 52.169
42.9935 0 -15.6225
18.3192 0 -39.2806
-49.1409 0 28.1453
-2.19037 0 -1.55659
-40.6911 0 10.4869
38.4059 0 1.11077
-20.0943 0 7.23077
15.4458 0 -0.382647
7.67257 0 21.6763
-8.86873 0 -20.658
-14.9278 0 4.12138
-18.0386 0 4.95125
18.0386 0 4.95125
14.9277 0 4.12136
8.86871 0 -20.6581
-7.67256 0 21.6761
-15.4461 0 -0.382918
20.0944 0 7.23076
-38.406 0 1.11076
40.6912 0 10.4868
2.19036 0 -1.55666
49.1408 0 28.1454
-18.3192 0 -39.2807
-42.9934 0 -15.6225
6.31322 0 52.169
-19.9324 0 7.38446
13.1274 0 -31.7745
42.4599 0 -126.916
-70.8291 0 84.4953
79.511 0 44.4326
-3.47753 0 -37.0755
-61.3429 0 21.2823
-50.2979 0 -23.7447
122.831 0 58.4687
-58.7785 0 -43.4388
27.4343 0 -15.8214
-64.3891 0 -37.2783
37.4776 0 -12.721
-80.549 0 20.6982
30.287 0 -20.9934
42.6993 0 -24.4538
-22.1183 0 19.0954
22.2289 0 10.1285
-19.2678 0 6.31522
1.78692 0 4.77737
-1.80039 0 3.90677
-21.736 0 27.7384
83.8174 0 -110.898
-61.7196 0 78.0489
-37.3718 0 -81.6653
7.42052 0 38.3525
-35.7563 0 -47.556
-32.9027 0 -62.042
8.33528 0 23.1334
-65.0291 0 -158.604
-81.5422 0 88.9214
105.333 0 73.3368
58.7612 0 -2.5301
8.118 0 -6.56151
-79.9914 0 -10.1294
-42.2949 0 33.7907
10.5196 0 -18.9316
5.48313 0 2.7717
-29.2029 0 -0.902637
13.7859 0 8.08048
-66.4415 0 -5.38331
61.0628 0 -8.30942
23.7224 0 -38.9751
10.0733 0 43.1554
-91.6847 0 19.786
47.9859 0 -50.401
104.941 0 11.6867
-104.942 0 11.6872
-47.9858 0 -50.4004
91.6857 0 19.7844
-10.0733 0 43.1555
-23.7224 0 -38.9754
-61.0634 0 -8.3092
66.4419 0 -5.38336
-13.7857 0 8.08048
29.2028 0 -0.90264
-5.48302 0 2.77163
-10.5196 0 -18.9316
42.295 0 33.7907
79.9915 0 -10.1294
-8.11806 0 -6.56155
-58.7611 0 -2.5301
-105.333 0 73.3368
81.5422 0 88.9214
65.0291 0 -158.604
-8.33529 0 23.1334
32.9027 0 -62.042
35.7563 0 -47.556
-7.42052 0 38.3525
37.3718 0 -81.6653
61.7196 0 78.0489
-83.8174 0 -110.898
21.736 0 27.7384
1.80039 0 3.90677
-1.78692 0 4.77737
19.2678 0 6.31522
-22.2289 0 10.1285
4.96112 0 -20.8838
-28.0539 0 -17.2097
6.20278 0 33.8754
-21.8657 0 21.4919
-29.9518 0 -16.3624
-113.719 0 138.728
21.9 0 -34.3475
-16.7947 0 -11.223
79.3808 0 112.718
-12.0258 0 -53.4629
-0.772847 0 32.9225
-54.3426 0 14.1939
-138.976 0 -96.1068
112.708 0 40.7389
108.658 0 61.6631
11.6913 0 6.38743
-6.0035 0 13.3498
-37.4191 0 23.3959
102.063 0 8.57377
29.979 0 -1.006
-168.776 0 -10.527
29.1144 0 16.0056
-4.7874 0 -19.3606
-3.35832 0 -8.693
-3.69164 0 -13.9391
-18.1689 0 59.9036
-21.1799 0 -88.3117
-83.4843 0 52.9742
-132.377 0 -121.965
20.6661 0 52.8583
-20.6659 0 52.8579
132.376 0 -121.964
83.4842 0 52.9739
21.1791 0 -88.3091
18.1693 0 59.9039
3.69148 0 -13.9391
3.35825 0 -8.69289
4.7875 0 -19.3606
-29.1144 0 16.0056
168.776 0 -10.5272
-29.979 0 -1.00597
-102.063 0 8.57374
37.419 0 23.3959
6.00356 0 13.3498
-11.6912 0 6.38742
-108.658 0 61.6631
-112.708 0 40.7389
138.976 0 -96.1068
54.3426 0 14.1939
0.772842 0 32.9225
12.0258 0 -53.4629
-79.3808 0 112.718
16.7947 0 -11.223
-21.9 0 -34.3475
113.719 0 138.728
29.9518 0 -16.3624
21.8657 0 21.4919
-6.20278 0 33.8754
28.0539 0 -17.2097
-4.96112 0 -20.8838
16.6872 0 16.3662
12.8543 0 -21.3982
-19.3717 0 -26.4635
-7.57342 0 -9.73888
19.831 0 -25.354
-34.8317 0 -82.7103
-24.5136 0 -11.4164
-12.2848 0 4.32313
25.9337 0 -0.631046
4.40966 0 39.489
59.0174 0 7.20157
3.66582 0 89.8244
113.052 0 70.1448
-4.34904 0 -10.4882
-199.972 0 -71.8435
-100.116 0 -105.08
-3.7704 0 -25.022
-8.0207 0 -12.3557
22.2075 0 16.0022
-16.6285 0 1.96249
-135.823 0 -2.06064
66.0669 0 -37.0761
153.708 0 -1.23403
1.29935 0 16.5885
-68.2737 0 -7.04345
36.1846 0 3.67536
62.232 0 106.011
-45.2191 0 -6.79933
7.81135 0 16.5767
171.28 0 105.904
-171.278 0 105.904
-7.8128 0 16.5763
45.2211 0 -6.7997
-62.2328 0 106.008
-36.1845 0 3.67511
68.2741 0 -7.04401
-1.29937 0 16.5884
-153.708 0 -1.2335
-66.0676 0 -37.0763
135.825 0 -2.06091
16.6285 0 1.96249
-22.2075 0 16.0022
8.0207 0 -12.3557
3.7704 0 -25.022
100.116 0 -105.08
199.972 0 -71.8434
4.34904 0 -10.4882
-113.052 0 70.1448
-3.66582 0 89.8244
-59.0174 0 7.20157
-4.40965 0 39.489
-25.9337 0 -0.631053
12.2848 0 4.32313
24.5136 0 -11.4163
34.8317 0 -82.7103
-19.831 0 -25.354
7.57342 0 -9.73888
19.3717 0 -26.4635
-12.8543 0 -21.3982
-16.6872 0 16.3662
8.37034 0 -2.60661
-60.2966 0 -32.7045
-29.2025 0 59.2901
-22.9979 0 -12.059
21.9804 0 89.5077
4.41888 0 70.9435
39.3364 0 -7.03833
-14.8561 0 12.3335
-32.5046 0 -45.7766
15.2226 0 24.5906
-7.00109 0 -5.46442
-2.06164 0 -15.2283
-101.912 0 -24.1036
-9.40037 0 -79.8049
-27.5202 0 6.48167
203.479 0 76.726
70.472 0 133.212
-25.8664 0 1.25914
-9.89595 0 -15.2334
5.07009 0 -26.7957
3.16943 0 11.8788
-4.82824 0 -10.1728
105.302 0 56.9679
-17.3196 0 2.26888
13.5046 0 2.40115
2.75537 0 8.03532
-9.46289 0 -0.0557578
-3.27785 0 -18.0143
-96.0692 0 -153.235
-22.9616 0 9.62338
22.9613 0 9.62352
96.0717 0 -153.236
3.27822 0 -18.0143
9.46226 0 -0.0557974
-2.75556 0 8.03571
-13.5042 0 2.4015
17.3194 0 2.26876
-105.304 0 56.9679
4.82824 0 -10.1728
-3.16945 0 11.8788
-5.07006 0 -26.7958
9.89597 0 -15.2334
25.8664 0 1.25913
-70.472 0 133.212
-203.479 0 76.7259
27.5202 0 6.48167
9.40035 0 -79.8049
101.912 0 -24.1036
2.06164 0 -15.2283
7.0011 0 -5.46441
-15.2226 0 24.5906
32.5046 0 -45.7766
14.8562 0 12.3335
-39.3364 0 -7.03833
-4.41888 0 70.9435
-21.9805 0 89.5077
22.9979 0 -12.059
29.2025 0 59.2901
60.2966 0 -32.7045
-8.37034 0 -2.60661
8.18868 0 11.3319
12.3557 0 5.95929
-4.56644 0 2.31647
41.5971 0 3.76117
-64.3646 0 22.2768
32.7342 0 -40.3887
37.342 0 78.8642
17.6444 0 -26.7819
-0.810804 0 9.95531
58.4386 0 -6.18056
-15.4638 0 -1.99702
40.3935 0 20.4542
23.8245 0 92.1371
-11.7909 0 76.2358
-93.7621 0 -7.86997
-8.38771 0 17.3819
28.0317 0 -4.46462
-99.671 0 -1.75943
7.59908 0 7.04855
-36.0018 0 -113.102
-29.4237 0 -44.096
-24.6066 0 -0.611619
-1.22941 0 -34.1882
15.7175 0 -28.9854
7.40398 0 -7.51308
-15.0186 0 -20.889
64.9369 0 -74.8732
-0.161497 0 -87.3352
-24.6026 0 39.7351
112.783 0 91.129
-112.784 0 91.1303
24.6012 0 39.7338
0.162991 0 -87.333
-64.9375 0 -74.872
15.0187 0 -20.8892
-7.40399 0 -7.51293
-15.7174 0 -28.9855
1.22924 0 -34.1883
24.6066 0 -0.611637
29.4236 0 -44.0959
36.0017 0 -113.102
-7.59914 0 7.04856
99.671 0 -1.75944
-28.0317 0 -4.4646
8.38771 0 17.3819
93.7621 0 -7.86996
11.7909 0 76.2358
-23.8245 0 92.1372
-40.3935 0 20.4542
15.4638 0 -1.99701
-58.4386 0 -6.18056
0.81081 0 9.95531
-17.6444 0 -26.7819
-37.342 0 78.8642
-32.7342 0 -40.3887
64.3646 0 22.2768
-41.5971 0 3.76116
4.56644 0 2.31647
-12.3557 0 5.95929
-8.18868 0 11.3319
-6.28089 0 -21.8677
17.6777 0 -33.6849
-24.827 0 -26.9839
-13.2152 0 -5.40246
-6.59753 0 38.5735
1.93877 0 -12.9438
56.2437 0 0.65783
-12.3359 0 -1.55115
-19.3127 0 -60.5124
19.9476 0 32.8731
-9.66997 0 -2.03214
-63.3496 0 -66.1573
-50.4001 0 -5.06978
68.1875 0 -26.3085
-42.7302 0 -39.8578
-25.2251 0 29.2748
192.325 0 -75.5198
-169.876 0 -83.1937
-17.1084 0 -145.51
82.631 0 123.274
-35.7083 0 43.0402
104.06 0 -79.8841
-26.3026 0 56.5241
-41.6612 0 70.6444
52.1639 0 -53.2767
-15.7971 0 -48.3686
-45.9794 0 60.5726
-38.0749 0 -21.5849
57.0426 0 67.315
-149.579 0 38.7487
149.578 0 38.7497
-57.0405 0 67.3144
38.074 0 -21.5887
45.9791 0 60.5729
15.7971 0 -48.3688
-52.1641 0 -53.2767
41.6611 0 70.6444
26.3026 0 56.5242
-104.06 0 -79.8837
35.7083 0 43.0402
-82.631 0 123.274
17.1087 0 -145.51
169.876 0 -83.1938
-192.325 0 -75.5198
25.2251 0 29.2747
42.7302 0 -39.8578
-68.1875 0 -26.3085
50.4 0 -5.06978
63.3496 0 -66.1573
9.66997 0 -2.03214
-19.9476 0 32.8731
19.3127 0 -60.5124
12.3359 0 -1.55115
-56.2437 0 0.657833
-1.93877 0 -12.9438
6.59752 0 38.5735
13.2152 0 -5.40245
24.827 0 -26.9839
-17.6777 0 -33.6849
6.28089 0 -21.8677
15.2185 0 14.0908
-14.4857 0 50.9536
-33.3491 0 -87.2307
27.3947 0 -4.56234
-68.132 0 -3.62274
-62.761 0 12.6583
52.285 0 -20.8848
-11.2013 0 1.423
-55.8841 0 -52.5355
32.8014 0 32.256
1.04349 0 -2.98602
-0.374415 0 14.2615
53.4694 0 11.986
-5.38715 0 -33.2621
-13.3171 0 -19.3771
-56.8064 0 52.5361
-25.9273 0 20.6736
36.824 0 -31.3667
151.631 0 88.3705
-90.1221 0 90.4272
-62.8984 0 10.725
-90.8868 0 26.9192
-37.775 0 -39.1199
117.538 0 -13.0726
4.06149 0 -10.0502
10.5671 0 -15.9109
-41.3166 0 28.7653
34.5753 0 25.3519
-4.55646 0 -29.3015
-7.13537 0 -22.1306
7.13587 0 -22.1287
4.55636 0 -29.3021
-34.5743 0 25.3553
41.3147 0 28.7653
-10.5673 0 -15.9107
-4.0614 0 -10.0503
-117.538 0 -13.0727
37.7748 0 -39.12
90.887 0 26.9188
62.8982 0 10.7249
90.1219 0 90.4276
-151.631 0 88.3706
-36.8239 0 -31.3667
25.9274 0 20.6737
56.8062 0 52.5362
13.3171 0 -19.3771
5.38715 0 -33.2621
-53.4694 0 11.986
0.374415 0 14.2615
-1.04349 0 -2.98602
-32.8014 0 32.256
55.8841 0 -52.5355
11.2013 0 1.423
-52.285 0 -20.8848
62.761 0 12.6583
68.132 0 -3.62276
-27.3947 0 -4.56236
33.3491 0 -87.2307
14.4857 0 50.9536
-15.2185 0 14.0908
17.2035 0 8.41273
-14.3997 0 -9.74794
-6.27372 0 35.7383
-4.85458 0 82.7044
80.1134 0 8.92677
-8.47522 0 6.92047
11.9867 0 17.9561
-43.3759 0 -13.3099
77.0703 0 84.4745
15.4455 0 -6.5265
41.3732 0 -127.915
-46.7244 0 12.1491
40.7276 0 -21.0882
10.592 0 26.3349
-125.152 0 -71.6696
142.336 0 28.5749
-12.0121 0 -9.09798
46.6292 0 36.3316
2.28437 0 -17.3746
-137.032 0 -72.5898
54.267 0 -7.86928
-30.0445 0 -45.6076
35.7181 0 47.8403
27.0991 0 48.2689
15.3015 0 26.1907
-10.9267 0 39.9929
-43.1486 0 4.02609
68.2919 0 -64.6109
-299.757 0 -118.045
302.399 0 69.2351
-302.397 0 69.2362
299.755 0 -118.044
-68.2911 0 -64.6086
43.1469 0 4.02892
10.9266 0 39.993
-15.3016 0 26.1905
-27.0989 0 48.2691
-35.7183 0 47.8402
30.0446 0 -45.6078
-54.2669 0 -7.86921
137.032 0 -72.5899
-2.28434 0 -17.3745
-46.6293 0 36.3316
12.0122 0 -9.09803
-142.336 0 28.5749
125.152 0 -71.6697
-10.592 0 26.3349
-40.7276 0 -21.0882
46.7244 0 12.1491
-41.3732 0 -127.915
-15.4455 0 -6.5265
-77.0703 0 84.4745
43.3759 0 -13.3099
-11.9867 0 17.9561
8.47522 0 6.92047
-80.1134 0 8.92677
4.85458 0 82.7044
6.27372 0 35.7383
14.3996 0 -9.74794
-17.2035 0 8.41273
-1.58853 0 -8.98907
-44.8204 0 -57.57
9.99728 0 91.1994
69.8211 0 -52.0374
-44.2781 0 -10.3142
35.4232 0 4.74889
2.73769 0 -0.172723
-29.0733 0 40.5831
20.9764 0 18.866
13.3392 0 7.76314
-38.6609 0 103.817
18.2279 0 38.3618
-11.0427 0 63.8094
-131.258 0 -108.012
147.969 0 10.6117
2.13887 0 122.13
-7.93993 0 -15.2584
-19.2623 0 -280.307
-17.6737 0 -70.4736
-19.0821 0 -104.16
96.6504 0 -45.9908
103.703 0 45.1587
-79.0632 0 31.2629
24.5062 0 -68.4379
-105.666 0 -14.1396
-63.0155 0 -228.162
-9.13982 0 64.3575
-2.58479 0 51.0515
-58.2284 0 -36.4101
6.03323 0 23.8857
-6.0325 0 23.882
58.2276 0 -36.4085
2.58501 0 51.0488
9.14273 0 64.3518
63.0163 0 -228.164
105.666 0 -14.1406
-24.5063 0 -68.4379
79.0635 0 31.2629
-103.703 0 45.1589
-96.6502 0 -45.9905
19.0821 0 -104.16
17.6736 0 -70.4737
19.2624 0 -280.308
7.93999 0 -15.2584
-2.13889 0 122.13
-147.969 0 10.6116
131.258 0 -108.012
11.0427 0 63.8094
-18.2279 0 38.3618