# vtk DataFile Version 3.0
SiWiRVisFile
ASCII
DATASET UNSTRUCTURED_GRID
POINTS 1600 DOUBLE
77.642 100 74.6805
78.6733 100 75.089
79.8231 100 75.3854
81.38 100 74.9337
82.5378 100 75.1447
83.6581 100 75.3519
85.2313 100 75.6459
86.3916 100 75.8446
87.4866 100 76.0465
88.3466 100 75.3691
90.1274 100 76.0841
91.2264 100 76.424
90.5237 100 74.8877
91.5245 100 73.7856
91.3419 100 72.7443
93.843 100 70.3979
94.7368 100 69.7134
96.1636 100 70.4178
95.8307 100 67.9998
98.5109 100 69.4149
103.594 100 59.9736
103.041 100 61.917
103.993 100 60.9658
105.602 100 61.0699
104.842 100 60.0587
107.329 100 59.5768
109.259 100 58.6636
109.225 100 57.4848
110.333 100 58.1291
111.658 100 57.7777
112.834 100 57.7777
114.159 100 58.1291
115.268 100 57.4848
115.233 100 58.6636
117.163 100 59.5768
119.651 100 60.0587
118.89 100 61.0699
120.5 100 60.9658
121.452 100 61.917
120.899 100 59.9736
125.982 100 69.4149
128.662 100 67.9998
128.329 100 70.4178
129.756 100 69.7134
130.649 100 70.3979
133.151 100 72.7443
132.968 100 73.7856
133.969 100 74.8877
133.266 100 76.424
134.365 100 76.0841
136.146 100 75.3691
137.006 100 76.0465
138.101 100 75.8446
139.261 100 75.6459
140.834 100 75.3519
141.955 100 75.1447
143.112 100 74.9337
144.669 100 75.3854
145.819 100 75.089
146.85 100 74.6805
77.8285 100 75.7621
78.9415 100 76.1522
80.7749 100 75.8992
81.8515 100 76.0897
82.9205 100 76.1507
84.2866 100 76.2343
85.5179 100 76.7014
86.6259 100 76.8614
87.9431 100 77.0733
89.0795 100 77.2872
90.4179 100 77.3516
91.556 100 77.3876
92.3692 100 75.3952
92.5724 100 74.0336
93.5963 100 73.3814
92.5295 100 73.0347
94.7386 100 70.9288
97.7168 100 70.1236
98.7594 100 70.6561
100.647 100 69.3103
102.915 100 60.77
100.38 100 65.7182
103.978 100 65.7476
109.576 100 61.2569
106.016 100 60.0152
106.771 100 60.7826
108.304 100 61.0436
109.316 100 59.7412
110.418 100 59.3754
111.604 100 58.8281
112.888 100 58.8281
114.074 100 59.3754
115.176 100 59.7412
116.188 100 61.0436
117.721 100 60.7826
118.477 100 60.0152
114.916 100 61.2569
120.514 100 65.7476
124.112 100 65.7182
121.577 100 60.77
123.846 100 69.3103
125.733 100 70.6561
126.776 100 70.1236
129.754 100 70.9288
131.963 100 73.0347
130.896 100 73.3814
131.92 100 74.0336
132.123 100 75.3952
132.936 100 77.3876
134.074 100 77.3516
135.413 100 77.2872
136.549 100 77.0733
137.866 100 76.8614
138.975 100 76.7014
140.206 100 76.2343
141.572 100 76.1507
142.641 100 76.0897
143.718 100 75.8992
145.551 100 76.1522
146.664 100 75.7621
78.0239 100 76.8296
79.1562 100 77.382
79.9799 100 76.6872
81.0989 100 77.005
82.3573 100 77.0774
83.4883 100 77.1524
84.6635 100 77.4237
85.982 100 77.7541
87.1165 100 77.9367
88.1535 100 78.2037
89.4582 100 78.373
90.7557 100 79.0876
91.7743 100 78.6255
92.4577 100 76.763
94.3755 100 74.1705
94.6866 100 73.0376
95.1342 100 71.9851
96.322 100 71.5076
97.4391 100 71.2493
99.8318 100 70.2005
102.111 100 69.0751
103.185 100 66.5576
105.035 100 67.2858
105.628 100 66.3252
106.697 100 64.0198
107.938 100 66.8063
108.316 100 65.551
107.072 100 65.9623
110.599 100 60.8762
111.665 100 60.0116
112.827 100 60.0116
113.893 100 60.8762
117.42 100 65.9623
116.176 100 65.5511
116.555 100 66.8063
117.796 100 64.0198
118.865 100 66.3252
119.457 100 67.2859
121.308 100 66.5576
122.382 100 69.0751
124.661 100 70.2005
127.053 100 71.2493
128.17 100 71.5076
129.358 100 71.9851
129.806 100 73.0376
130.117 100 74.1705
132.035 100 76.763
132.718 100 78.6255
133.737 100 79.0876
135.034 100 78.373
136.339 100 78.2037
137.376 100 77.9367
138.51 100 77.7541
139.829 100 77.4237
141.004 100 77.1524
142.135 100 77.0774
143.394 100 77.005
144.513 100 76.6872
145.336 100 77.382
146.469 100 76.8296
78.1567 100 77.9892
79.1954 100 78.455
80.1686 100 77.9053
81.2388 100 78.12
82.8551 100 78.0562
83.9312 100 78.1534
85.2065 100 78.5961
86.3217 100 78.8197
87.342 100 79.3008
88.5697 100 79.2341
89.7472 100 79.5387
90.7196 100 80.2008
91.6289 100 79.7145
93.394 100 75.9447
93.3367 100 74.6971
95.4266 100 75.118
95.4459 100 73.942
96.4025 100 72.8244
97.5407 100 72.5189
98.4667 100 71.6823
99.8982 100 71.4766
101.526 100 70.1489
103.882 100 67.7228
104.906 100 68.3297
106.03 100 67.9596
106.77 100 66.9551
108.838 100 67.8284
109.944 100 67.5245
109.752 100 65.2376
111.63 100 61.0727
112.863 100 61.0727
114.741 100 65.2376
114.548 100 67.5245
115.654 100 67.8283
117.723 100 66.9552
118.462 100 67.9597
119.587 100 68.3298
120.611 100 67.7228
122.966 100 70.1489
124.594 100 71.4766
126.026 100 71.6823
126.952 100 72.5189
128.09 100 72.8244
129.047 100 73.942
129.066 100 75.118
131.156 100 74.6971
131.098 100 75.9447
132.864 100 79.7145
133.773 100 80.2008
134.745 100 79.5387
135.923 100 79.2341
137.15 100 79.3008
138.171 100 78.8197
139.286 100 78.5961
140.561 100 78.1534
141.637 100 78.0562
143.254 100 78.12
144.324 100 77.9053
145.297 100 78.455
146.336 100 77.9892
78.2313 100 79.0988
79.249 100 79.8078
80.1452 100 79.0399
82.2116 100 78.9136
83.3314 100 79.0913
84.3113 100 79.3097
85.5444 100 79.6734
86.5636 100 80.091
87.6995 100 80.2781
88.8887 100 80.2606
89.8592 100 80.8793
91.6319 100 80.8912
92.7995 100 79.0385
94.6901 100 77.3021
94.3421 100 75.3964
96.3817 100 75.9757
96.6144 100 74.9487
96.6578 100 73.8791
97.9838 100 73.4988
99.007 100 72.6476
101.036 100 71.1662
103.029 100 70.8755
105.66 100 69.068
106.757 100 68.71
107.678 100 67.9349
108.23 100 68.826
109.555 100 68.8796
110.646 100 69.3131
109.3 100 66.6235
111.369 100 63.6542
113.124 100 63.6542
115.192 100 66.6235
113.846 100 69.3131
114.937 100 68.8797
116.262 100 68.8259
116.815 100 67.9348
117.735 100 68.7101
118.833 100 69.068
121.464 100 70.8754
123.456 100 71.1662
125.485 100 72.6476
126.509 100 73.4988
127.835 100 73.8791
127.878 100 74.9487
128.111 100 75.9757
130.15 100 75.3964
129.802 100 77.3021
131.693 100 79.0385
132.861 100 80.8912
134.633 100 80.8793
135.604 100 80.2606
136.793 100 80.2781
137.929 100 80.091
138.948 100 79.6734
140.181 100 79.3097
141.161 100 79.0913
142.281 100 78.9136
144.347 100 79.0399
145.243 100 79.8078
146.261 100 79.0988
78.1308 100 80.2177
79.0833 100 80.9042
80.2637 100 80.2145
81.1224 100 79.5306
82.0745 100 80.0202
83.5617 100 80.1826
84.6514 100 80.4405
85.698 100 80.7745
86.6991 100 81.2338
87.7396 100 81.3752
88.9363 100 81.4376
90.7772 100 81.7569
92.7567 100 81.1282
93.7446 100 79.5734
94.4541 100 78.3992
95.1605 100 76.2543
97.2851 100 76.5204
97.554 100 75.5194
98.382 100 74.5061
99.6287 100 74.244
100.244 100 72.6159
102.047 100 71.4105
104.016 100 71.5587
105.038 100 71.1761
106.411 100 70.063
107.369 100 69.6454
108.725 100 69.7227
109.697 100 69.9963
111.694 100 69.5173
111.212 100 68.3529
113.281 100 68.3528
112.799 100 69.5174
114.796 100 69.9965
115.767 100 69.7224
117.123 100 69.6455
118.081 100 70.063
119.454 100 71.1761
120.476 100 71.5587
122.445 100 71.4105
124.249 100 72.6158
124.864 100 74.244
126.11 100 74.5061
126.938 100 75.5193
127.207 100 76.5204
129.332 100 76.2543
130.038 100 78.3992
130.748 100 79.5734
131.736 100 81.1282
133.715 100 81.7569
135.556 100 81.4376
136.753 100 81.3752
137.793 100 81.2338
138.794 100 80.7745
139.841 100 80.4405
140.931 100 80.1826
142.418 100 80.0202
143.37 100 79.5306
144.229 100 80.2145
145.409 100 80.9042
146.362 100 80.2177
78.0596 100 81.3451
79.2329 100 82.0304
80.1414 100 81.3401
81.1177 100 80.904
82.2999 100 81.1195
83.3218 100 81.3345
84.6663 100 81.8218
85.7543 100 82.1373
87.0322 100 82.322
88.2971 100 82.4042
89.404 100 82.5369
92.062 100 81.998
92.8864 100 82.9557
94.2111 100 80.6463
95.5268 100 79.3609
96.2922 100 77.6024
97.7008 100 77.7543
98.429 100 76.2188
99.1438 100 75.2106
100.867 100 73.4935
101.282 100 72.2424
102.5 100 72.3454
104.788 100 72.4145
106.356 100 71.293
107.255 100 70.7938
109.033 100 70.9043
110.051 100 71.104
110.986 100 70.4612
110.06 100 72.7662
110.842 100 71.8398
113.651 100 71.8401
114.434 100 72.7666
113.506 100 70.4612
114.441 100 71.104
115.459 100 70.9043
117.237 100 70.7937
118.137 100 71.293
119.704 100 72.4145
121.992 100 72.3454
123.211 100 72.2424
123.625 100 73.4935
125.349 100 75.2106
126.063 100 76.2188
126.792 100 77.7543
128.2 100 77.6024
128.966 100 79.3609
130.281 100 80.6463
131.606 100 82.9557
132.43 100 81.998
135.088 100 82.5369
136.195 100 82.4042
137.46 100 82.322
138.738 100 82.1373
139.826 100 81.8218
141.171 100 81.3345
142.193 100 81.1195
143.375 100 80.904
144.351 100 81.3401
145.26 100 82.0304
146.433 100 81.3451
78.1171 100 82.4218
78.9299 100 83.1458
80.1065 100 82.6503
81.1034 100 83.2684
81.1742 100 82.0496
82.3133 100 82.6826
83.9211 100 82.5921
84.9675 100 82.9864
86.3045 100 83.1624
87.3151 100 83.5335
88.4291 100 83.8024
89.5809 100 83.6513
90.5128 100 82.9598
91.577 100 83.729
92.7097 100 84.0942
93.977 100 82.3964
96.5507 100 78.7054
98.8503 100 77.3146
99.7016 100 76.2659
100.412 100 75.2099
101.402 100 74.4104
101.944 100 73.2848
103.567 100 72.7406
105.95 100 72.3466
107.135 100 72.22
108.411 100 71.8616
107.125 100 73.3499
108.912 100 73.6428
110.383 100 74.1508
111.301 100 73.2491
113.192 100 73.2476
114.109 100 74.1504
115.58 100 73.6428
117.368 100 73.3499
116.081 100 71.8616
117.357 100 72.22
118.542 100 72.3466
120.925 100 72.7406
122.548 100 73.2848
123.09 100 74.4104
124.08 100 75.2099
124.791 100 76.2659
125.642 100 77.3146
127.942 100 78.7054
130.515 100 82.3964
131.783 100 84.0942
132.915 100 83.729
133.98 100 82.9598
134.911 100 83.6513
136.063 100 83.8024
137.177 100 83.5335
138.188 100 83.1624
139.525 100 82.9865
140.571 100 82.5921
142.179 100 82.6826
143.318 100 82.0496
143.389 100 83.2684
144.386 100 82.6503
145.562 100 83.1458
146.375 100 82.4218
78.0454 100 83.8947
78.9681 100 84.3739
80.0728 100 83.8693
80.982 100 84.4291
82.153 100 83.7507
83.2286 100 83.5683
84.2805 100 83.9982
85.1639 100 84.7387
86.2467 100 84.2542
87.4476 100 84.7766
88.4488 100 85.0404
89.6384 100 84.9353
90.7337 100 84.617
91.9063 100 84.7944
93.8829 100 83.8265
94.9684 100 81.4299
96.8997 100 79.7628
97.6273 100 78.8283
99.9934 100 77.6468
100.736 100 76.8416
102.509 100 74.9026
[...]
POINT_DATA 1600
SCALARS mass double
LOOKUP_TABLE default
1
1
1
1
1
1
1
1
1
1
1
1
1
1
1
1
1
1
1
1
1
1
1
1
1
1
1
1
1
1
1
1
1
1
1
1
1
1
1
1
1
1
1
1
1
1
1
1
1
1
1
1
1
1
1
1
1
1
1
1
1
1
1
1
1
1
1
1
1
1
1
1
1
1
1
1
1
1
1
1
1
1
1
1
1
1
1
1
1
1
1
1
1
1
1
1
1
1
1
1
1
1
1
1
1
1
1
1
1
1
1
1
1
1
1
1
1
1
1
1
1
1
1
1
1
1
1
1
1
1
1
1
1
1
1
1
1
1
1
1
1
1
1
1
1
1
1
1
1
1
1
1
1
1
1
1
1
1
1
1
1
1
1
1
1
1
1
1
1
1
1
1
1
1
1
1
1
1
1
1
1
1
1
1
1
1
1
1
1
1
1
1
1
1
1
1
1
1
1
1
1
1
1
1
1
1
1
1
1
1
1
1
1
1
1
1
1
1
1
1
1
1
1
1
1
1
1
1
1
1
1
1
1
1
1
1
1
1
1
1
1
1
1
1
1
1
1
1
1
1
1
1
1
1
1
1
1
1
1
1
1
1
1
1
1
1
1
1
1
1
1
1
1
1
1
1
1
1
1
1
1
1
1
1
1
1
1
1
1
1
1
1
1
1
1
1
1
1
1
1
1
1
1
1
1
1
1
1
1
1
1
1
1
1
1
1
1
1
1
1
1
1
1
1
1
1
1
1
1
1
1
1
1
1
1
1
1
1
1
1
1
1
1
1
1
1
1
1
1
1
1
1
1
1
1
1
1
1
1
1
1
1
1
1
1
1
1
1
1
1
1
1
1
1
1
1
1
1
1
1
1
1
1
1
1
1
1
1
1
1
1
1
1
1
1
1
1
1
1
1
1
1
1
1
1
1
1
1
1
1
1
1
1
1
1
1
1
1
1
1
1
1
1
1
1
1
1
1
1
1
1
1
1
1
1
1
1
1
1
1
1
1
1
1
1
1
1
1
1
1
1
1
1
1
1
1
1
1
1
1
1
1
1
1
1
1
1
1
1
1
1
1
1
1
1
1
1
1
1
1
1
1
1
1
1
1
1
1
1
1
1
1
1
1
1
1
1
1
1
1
1
1
1
1
1
1
1
1
1
1
1
1
1
1
1
1
1
1
1
1
1
1
1
1
1
1
1
1
1
1
1
1
1
1
1
1
1
1
1
1
1
1
1
1
1
1
1
1
1
1
1
1
1
1
1
1
1
1
1
1
1
1
1
1
1
1
1
1
1
1
1
1
1
1
1
1
1
1
1
1
1
1
1
1
1
1
1
1
1
1
1
1
1
1
1
1
1
1
1
1
1
1
1
1
1
1
1
1
1
1
1
1
1
1
1
1
1
1
1
1
1
1
1
1
1
1
1
1
1
1
1
1
1
1
1
1
1
1
1
1
1
1
1
1
1
1
1
1
1
1
1
1
1
1
1
1
1
1
1
1
1
1
1
1
1
1
1
1
1
1
1
1
1
1
1
1
1
1
1
1
1
1
1
1
1
1
1
1
1
1
1
1
1
1
1
1
1
1
1
1
1
1
1
1
1
1
1
1
1
1
1
1
1
1
1
1
1
1
1
1
1
1
1
1
1
1
1
1
1
1
1
1
1
1
1
1
1
1
1
1
1
1
1
1
1
1
1
1
1
1
1
1
1
1
1
1
1
1
1
1
1
1
1
1
1
1
1
1
1
1
1
1
1
1
1
1
1
1
1
1
1
1
1
1
1
1
1
1
1
1
1
1
1
1
1
1
1
1
1
1
1
1
1
1
1
1
1
1
1
1
1
1
1
1
1
1
1
1
1
1
1
1
1
1
1
1
1
1
1
1
1
1
1
1
1
1
1
1
1
1
1
1
1
1
1
1
1
1
1
1
1
1
1
1
1
1
1
1
1
1
1
1
1
1
1
1
1
1
1
1
1
1
1
1
1
1
1
1
1
1
1
1
1
1
1
1
1
1
1
1
1
1
1
1
1
1
1
1
1
1
1
1
1
1
1
1
1
1
1
1
1
1
1
1
1
1
1
1
1
1
1
1
1
1
1
1
1
1
1
1
1
1
1
1
1
1
1
1
1
1
1
1
1
1
1
1
1
1
1
1
1
1
1
1
1
1
1
1
1
1
1
1
1
1
1
1
1
1
1
1
1
1
1
1
1
1
1
1
1
1
1
1
1
1
1
1
1
1
1
1
1
1
1
1
1
1
1
1
1
1
1
1
1
1
1
1
1
1
1
1
1
1
1
1
1
1
1
1
1
1
1
1
1
1
1
1
1
1
1
1
1
1
1
1
1
1
1
1
1
1
1
1
1
1
1
1
1
1
1
1
1
1
1
1
1
1
1
1
1
1
1
1
1
1
1
1
1
1
1
1
1
1
1
1
1
1
1
1
1
1
1
1
1
1
1
1
1
1
1
1
1
1
1
1
1
1
1
1
1
1
1
1
1
1
1
1
1
1
1
1
1
1
1
1
1
1
1
1
1
1
1
1
1
1
1
1
1
1
1
1
1
1
1
1
1
1
1
1
1
1
1
1
1
1
1
1
1
1
1
1
1
1
1
1
1
1
1
1
1
1
1
1
1
1
1
1
1
1
1
1
1
1
1
1
1
1
1
1
1
1
1
1
1
1
1
1
1
1
1
1
1
1
1
1
1
1
1
1
1
1
1
1
1
1
1
1
1
1
1
1
1
1
1
1
1
1
1
1
1
1
1
1
1
1
1
1
1
1
1
1
1
1
1
1
1
1
1
1
1
1
1
1
1
1
1
1
1
1
1
1
1
1
1
1
1
1
1
1
1
1
1
1
1
1
1
1
1
1
1
1
1
1
1
1
1
1
1
1
1
1
1
1
1
1
1
1
1
1
1
1
1
1
1
1
1
1
1
1
1
1
1
1
1
1
1
1
1
1
1
1
1
1
1
1
1
1
1
1
1
1
1
1
1
1
1
1
1
1
1
1
1
1
1
1
1
1
1
1
1
1
1
1
1
1
1
1
1
1
1
1
1
1
1
1
1
1
1
1
1
1
1
1
1
1
1
1
1
1
1
1
1
1
1
1
1
1
1
1
1
1
1
1
1
1
1
1
1
1
1
1
1
1
1
1
1
1
1
1
1
1
1
1
1
1
1
1
1
1
1
1
1
1
1
1
1
1
1
1
1
1
1
1
1
1
1
1
1
1
1
1
1
1
1
1
1
1
1
1
1
1
1
1
1
1
1
1
1
1
1
1
1
1
1
1
1
1
1
1
1
1
1
1
1
1
1
1
1
1
1
1
1
1
1
1
1
1
1
1
1
1
1
1
1
1
1
1
1
1
1
1
1
1
1
1
1
1
1
1
1
1
1
1
1
1
1
1
1
1
1
1
1
1
1
1
1
1
1
1
1
1
1
1
1
1
1
1
1
1
1
1
1
1
1
1
1
1
1
1
1
1
1
1
1
1
1
1
1
1
1
1
1
1
1
1
1
1
1
1
1
1
1
1
1
1
1
1
1
1
1
1
1
1
1
1
1
1
1
1
1
1
1
1
1
1
1
1
1
1
1
1
1
1
1
1
1
1
1
1
1
1
VECTORS force double
-4.40579 0 -9.09418
26.1917 0 -13.8902
-27.5581 0 6.34497
9.07564 0 19.2757
-18.1987 0 -10.555
-1.47205 0 -20.5419
5.90249 0 -7.97409
-30.7675 0 -39.2869
-13.3412 0 16.6913
8.27809 0 -2.72255
9.4431 0 5.12366
-26.8084 0 -74.5424
2.76768 0 9.49315
-5.86941 0 29.1569
6.89506 0 -30.0602
-42.8996 0 -26.3193
3.59746 0 13.8472
-2.37323 0 -3.96968
-0.40571 0 0.912935
28.7924 0 -4.20666
32.5877 0 -56.6406
6.548 0 -14.5293
24.7708 0 23.6894
1.01046 0 -15.3395
-3.75865 0 17.5845
-10.3905 0 14.1136
16.5114 0 -28.0898
10.7603 0 16.2952
-4.52842 0 13.3939
4.62249 0 -34.3435
-4.62276 0 -34.3432
4.52792 0 13.3938
-10.7604 0 16.2954
-16.5116 0 -28.0894
10.3906 0 14.1136
3.75855 0 17.5845
-1.01042 0 -15.3395
-24.7708 0 23.6894
-6.54801 0 -14.5293
-32.5877 0 -56.6406
-28.7995 0 -4.213
0.405704 0 0.912938
2.37351 0 -3.96986
-3.5978 0 13.8471
42.9069 0 -26.324
-6.89505 0 -30.0604
5.86959 0 29.157
-2.76763 0 9.49316
26.8085 0 -74.5427
-9.44305 0 5.12361
-8.27757 0 -2.72207
13.3407 0 16.6911
30.7674 0 -39.2868
-5.90249 0 -7.9741
1.47207 0 -20.542
18.1987 0 -10.555
-9.07563 0 19.2757
27.5581 0 6.34497
-26.1917 0 -13.8902
4.4058 0 -9.09417
-4.61588 0 9.32241
7.00562 0 19.4088
9.18099 0 9.93312
-20.8646 0 -11.8836
41.3462 0 25.1122
2.90716 0 39.6894
3.79372 0 5.32559
36.5259 0 45.9218
-9.8634 0 12.023
-1.42525 0 9.8773
-4.98675 0 -11.1122
16.5533 0 97.0234
12.8391 0 -0.82548
-37.6133 0 64.9069
-9.14834 0 12.2898
-24.7663 0 -113.942
52.7713 0 15.8654
-18.9251 0 34.7363
5.60752 0 -35.7985
6.15761 0 17.2399
-38.3828 0 39.5249
0 0 0
0.810487 0 5.03579
-22.0593 0 -3.52338
-16.606 0 -14.032
11.469 0 8.0168
7.81046 0 -3.26552
9.32223 0 23.9044
2.4436 0 -9.56914
-2.11454 0 51.8324
2.11477 0 51.8319
-2.44275 0 -9.56995
-9.32172 0 23.9042
-7.8109 0 -3.26541
-11.4692 0 8.01703
16.6063 0 -14.0322
22.0543 0 -3.52535
-0.811426 0 5.0359
0 0 0
38.3828 0 39.5248
-6.15835 0 17.2392
-5.61096 0 -35.7986
18.9329 0 34.7427
-52.7783 0 15.8708
24.766 0 -113.934
9.14666 0 12.2907
37.616 0 64.8984
-12.838 0 -0.826112
-16.5535 0 97.0237
4.98689 0 -11.1122
1.4253 0 9.87716
9.86344 0 12.0226
-36.5259 0 45.9218
-3.79366 0 5.32563
-2.90718 0 39.6894
-41.3462 0 25.1123
20.8646 0 -11.8836
-9.18099 0 9.93311
-7.00561 0 19.4089
4.61586 0 9.32238
20.4429 0 25.0365
-30.8532 0 -19.7415
14.7627 0 -11.5583
0.816889 0 -7.77654
-22.1167 0 12.4086
11.8546 0 -27.7243
40.9124 0 -43.3861
-13.7063 0 1.96193
-31.4538 0 -7.76669
32.5633 0 -1.13672
-8.1239 0 9.33654
-18.5472 0 -21.7868
-7.1086 0 -23.3507
4.47613 0 -24.6115
-8.25482 0 17.671
3.30094 0 13.6538
13.0988 0 1.61703
-2.29228 0 22.4778
-2.62317 0 0.407759
1.73085 0 7.74319
-11.1593 0 12.4049
8.25487 0 6.59564
5.17033 0 -31.1942
12.8193 0 8.20117
0.499699 0 1.25694
-0.880606 0 -2.83695
-3.37882 0 18.222
28.8478 0 -46.7219
-26.1403 0 -25.5703
-1.52292 0 -39.2457
1.52176 0 -39.2443
26.1487 0 -25.5682
-28.8543 0 -46.7204
3.37142 0 18.2224
0.87532 0 -2.85156
-0.499346 0 1.25615
-12.8166 0 8.19513
-5.17033 0 -31.2053
-8.2551 0 6.59614
11.1592 0 12.4054
-1.72877 0 7.7453
2.62181 0 0.407951
2.29221 0 22.4773
-13.0988 0 1.61637
-3.29856 0 13.6542
8.26136 0 17.6706
-4.47613 0 -24.6113
7.10782 0 -23.3492
18.5492 0 -21.7869
8.12396 0 9.33659
-32.5638 0 -1.13648
31.4544 0 -7.76681
13.7062 0 1.96198
-40.9125 0 -43.3862
-11.8546 0 -27.7244
22.1167 0 12.4085
-0.816895 0 -7.77654
-14.7627 0 -11.5584
30.8532 0 -19.7415
-20.4429 0 25.0364
12.0354 0 -15.0337
-10.4292 0 33.5172
-8.2342 0 -20.4705
20.6709 0 17.6658
-4.20275 0 -4.00776
-7.27883 0 65.2031
-10.3729 0 -10.9828
3.09482 0 9.29625
-1.12013 0 -67.9065
-3.57552 0 -15.0545
-10.0145 0 3.92401
-53.5524 0 28.4215
81.234 0 -2.67039
-22.5815 0 -2.72608
82.5507 0 71.9513
13.8223 0 -2.05162
20.7085 0 -1.6985
-2.92747 0 -25.3849
-8.55353 0 -35.6633
-10.64 0 27.7989
-1.02669 0 -1.33886
-0.4237 0 -5.46364
16.1866 0 -7.76942
-28.9843 0 5.00645
-44.1365 0 -40.9794
-17.9582 0 66.5852
-3.42207 0 0.338018
-1.03801 0 17.4734
-8.33678 0 8.09154
55.395 0 35.7935
-55.3974 0 35.7927
8.34197 0 8.09658
1.04122 0 17.4524
3.44859 0 0.34655
17.9707 0 66.5788
44.108 0 -40.9697
28.9951 0 5.02507
-16.1888 0 -7.76817
0.423195 0 -5.46105
1.02674 0 -1.33937
10.6423 0 27.7942
8.55639 0 -35.6687
2.92733 0 -25.3853
-20.7176 0 -1.69848
-13.8223 0 -2.05557
-82.5523 0 71.9528
22.5785 0 -2.72688
-81.239 0 -2.67457
53.56 0 28.4254
10.0133 0 3.92376
3.5757 0 -15.0549
1.12006 0 -67.9067
-3.09451 0 9.29616
10.3728 0 -10.9828
7.27892 0 65.2033
4.20273 0 -4.00771
-20.6709 0 17.6658
8.23421 0 -20.4705
10.4291 0 33.5173
-12.0354 0 -15.0337
18.9283 0 6.05899
-20.2742 0 -25.9457
-9.65447 0 4.26092
-28.9294 0 14.3472
-117.038 0 -25.9386
118.801 0 25.6099
-20.0142 0 -10.3719
14.3988 0 -1.2816
22.7442 0 39.1168
-1.1232 0 34.777
11.9373 0 -7.2318
-4.86477 0 5.19623
-15.4342 0 -0.194712
5.24396 0 -6.86886
5.94046 0 -17.036
-49.7578 0 12.4482
-11.832 0 -17.7871
3.10402 0 -11.1817
1.49237 0 -0.222481
5.14593 0 7.65463
-65.1916 0 -18.1007
5.92657 0 9.62348
44.3756 0 24.7266
38.0393 0 34.0163
-30.9635 0 -42.9388
-11.1016 0 -28.1704
-11.3025 0 -6.17992
-42.1677 0 9.67664
-19.4417 0 -2.79547
1.9033 0 0.27209
-1.90337 0 0.27203
19.4211 0 -2.78246
42.1169 0 9.65024
11.2821 0 -6.18086
11.1646 0 -28.2516
30.9416 0 -42.901
-38.0296 0 34.0043
-44.3689 0 24.7363
-5.93024 0 9.62229
65.1891 0 -18.0976
-5.15117 0 7.65601
-1.48955 0 -0.221807
-3.10389 0 -11.1852
11.8303 0 -17.7853
49.8085 0 12.4222
-5.93774 0 -17.0357
-5.24616 0 -6.87473
15.4351 0 -0.195487
4.86323 0 5.19713
-11.9392 0 -7.23328
1.12296 0 34.7773
-22.7443 0 39.1172
-14.399 0 -1.28148
20.0143 0 -10.3721
-118.801 0 25.6099
117.038 0 -25.9387
28.9293 0 14.3472
9.65452 0 4.26085
20.2742 0 -25.9456
-18.9283 0 6.059
19.1691 0 3.32073
7.82012 0 -0.210598
-11.975 0 1.51011
4.38251 0 -16.4395
21.6018 0 19.3397
-6.65414 0 7.03812
-4.9034 0 -8.40681
-6.54213 0 20.034
-36.3834 0 -3.55241
52.1039 0 26.57
-28.0784 0 13.9877
3.40804 0 -5.51795
1.4745 0 -5.23381
21.2183 0 8.68369
0.229563 0 13.2623
4.58334 0 -12.7917
26.7283 0 85.7825
20.4247 0 -57.2845
-32.9349 0 -14.6262
9.76073 0 -11.315
-30.9237 0 -24.7807
21.7519 0 -40.5485
-22.5339 0 15.6624
24.334 0 11.8746
-51.6479 0 12.6304
59.9866 0 -19.7234
-60.1598 0 42.0084
113.597 0 31.1732
10.5683 0 2.13191
-0.0384299 0 8.05271
0.0583562 0 8.07197
-10.5378 0 2.12858
-113.395 0 31.1268
59.9242 0 42.1165
-59.7038 0 -19.6347
51.3688 0 12.498
-24.3412 0 11.8717
22.5353 0 15.6685
-21.7345 0 -40.5675
30.9242 0 -24.7695
-9.75647 0 -11.3087
32.9272 0 -14.6155
-20.4232 0 -57.274
-26.7808 0 85.7994
-4.58049 0 -12.7827
-0.229488 0 13.2621
-21.2191 0 8.68459
-1.47445 0 -5.2344
-3.40795 0 -5.51782
28.0781 0 13.9876
-52.104 0 26.5701
36.3834 0 -3.55246
6.5421 0 20.0339
4.90326 0 -8.4067
6.65418 0 7.03801
-21.6018 0 19.3397
-4.38252 0 -16.4394
11.9749 0 1.51018
-7.82014 0 -0.210724
-19.1692 0 3.32071
7.31484 0 -15.8474
-34.007 0 -14.8239
-22.8661 0 24.2059
48.1225 0 -13.1696
-60.177 0 -6.78308
59.7759 0 9.59489
19.5584 0 -21.6378
14.519 0 -3.79112
10.3116 0 -3.60326
-16.5506 0 -2.56227
8.90651 0 -5.89759
-9.89294 0 2.19911
5.06331 0 1.35496
-15.7378 0 -14.9865
9.9732 0 -7.34041
8.4643 0 -4.25912
6.61855 0 -27.3788
11.7674 0 2.05656
39.3659 0 73.5726
-15.6774 0 -14.577
20.9498 0 21.4645
25.4733 0 38.4307
-5.70139 0 -9.4266
-62.1012 0 30.5184
65.6998 0 -29.1472
-60.778 0 -19.7666
40.0755 0 -9.72717
-10.2641 0 -12.0149
11.7382 0 3.15516
7.50333 0 17.6807
-7.488 0 17.7414
-11.7527 0 3.18519
10.2545 0 -12.0312
-40.0348 0 -9.71271
60.737 0 -19.7605
-65.7712 0 -29.1696
62.1776 0 30.569
5.7083 0 -9.43223
-25.4736 0 38.4463
-20.9573 0 21.4609
15.6846 0 -14.5714
-39.3628 0 73.5643
-11.7663 0 2.05709
-6.61391 0 -27.3743
-8.46744 0 -4.26015
-9.97501 0 -7.33952
15.7389 0 -14.9873
-5.064 0 1.35618
9.89339 0 2.19955
-8.90706 0 -5.89748
16.5517 0 -2.56238
-10.3114 0 -3.60308
-14.5187 0 -3.79108
-19.5585 0 -21.6378
-59.7761 0 9.59495
60.1772 0 -6.78317
-48.1224 0 -13.1696
22.8661 0 24.2059
34.0069 0 -14.8239
-7.31479 0 -15.8475
2.74996 0 12.0537
26.1675 0 18.6956
26.2993 0 18.0444
-2.46572 0 -4.86464
-7.35109 0 6.68376
-2.98139 0 -17.8257
-28.8889 0 24.1882
7.28461 0 -1.55217
-34.2723 0 -23.9055
17.8431 0 10.9674
-0.479093 0 6.57961
0.943651 0 10.2167
-3.19316 0 -2.45085
-3.37068 0 0.21939
-2.9641 0 -51.7104
3.13743 0 7.82209
-22.1145 0 -4.22634
-0.685564 0 1.88408
-6.34849 0 -0.042067
-15.4217 0 -5.48598
22.0378 0 26.8433
4.81512 0 13.2221
15.9411 0 -9.30078
3.99632 0 4.60936
-8.41475 0 -14.4158
-8.3839 0 -3.01288
81.8936 0 -24.2246
21.8947 0 -8.67245
-2.33407 0 2.27255
-17.5427 0 8.35569
17.5681 0 8.27784
2.30556 0 2.28089
-22.0472 0 -8.85982
-82.0514 0 -24.3044
8.38401 0 -3.01112
8.41302 0 -14.3975
-4.00079 0 4.61054
-15.9371 0 -9.28395
-4.82944 0 13.2206
-22.0262 0 26.826
15.4222 0 -5.48394
6.34407 0 -0.0356052
0.683171 0 1.8828
22.1101 0 -4.23072
-3.13693 0 7.8228
2.95761 0 -51.7034
3.37127 0 0.218784
3.19308 0 -2.45109
-0.943564 0 10.2167
0.478993 0 6.57954
-17.8417 0 10.9668
34.2709 0 -23.905
-7.28467 0 -1.55246
28.8888 0 24.1882
2.98134 0 -17.8253
7.35111 0 6.68371
2.46577 0 -4.86463
-26.2993 0 18.0444
-26.1675 0 18.6956
-2.74998 0 12.0538
-40.1427 0 -24.5184
52.9375 0 24.1278
-33.02 0 -28.7097
33.5695 0 16.309
-29.0818 0 23.3804
15.5003 0 -12.5624
0.953708 0 -4.05575
-0.367441 0 1.02114
9.48492 0 17.6869
-70.7345 0 -37.5097
74.2835 0 7.49276
-19.2715 0 -14.8238
7.65371 0 -0.329297
8.13326 0 -34.7731
1.05489 0 -23.7601
16.0275 0 21.6161
-26.7283 0 -10.5698
6.22016 0 41.9673
-30.6749 0 0.601063
11.8765 0 -3.72521
0.0692813 0 -11.5995
-21.2003 0 10.2103
14.0395 0 -33.827
-78.5494 0 19.7689
0.863094 0 2.64672
-3.40876 0 5.54531
0.964771 0 15.0814
4.79078 0 -1.92371
0.806285 0 -28.0241
-12.4627 0 -0.906916
12.5287 0 -0.873823
-0.821863 0 -27.9607
-4.89271 0 -1.85419
-0.549208 0 15.3328
3.19317 0 5.45546
-0.906123 0 2.59835
78.7139 0 19.8175
-14.001 0 -33.7985
21.1735 0 10.2008
-0.0870742 0 -11.604
-11.9406 0 -3.7933
30.7123 0 0.66131
-6.20028 0 41.9704
26.7157 0 -10.5655
-16.0284 0 21.6163
-1.05514 0 -23.7615
-8.13289 0 -34.7733
-7.65462 0 -0.328668
19.2709 0 -14.8228
-74.2832 0 7.49163
70.7333 0 -37.5088
-9.48483 0 17.687
0.367433 0 1.02102
-0.953867 0 -4.05569
-15.5 0 -12.5625
29.0816 0 23.38
-33.5695 0 16.3089
33.02 0 -28.7097
-52.9376 0 24.1278
40.1428 0 -24.5185
18.72 0 -12.1258
-13.3732 0 -11.8292
-80.5238 0 -64.1532
85.1341 0 29.1738
-10.18 0 3.26146
13.4917 0 -1.89233
-4.2872 0 -16.2901
9.31827 0 -9.03688
3.37212 0 7.53872
8.82811 0 -1.43945
2.45589 0 22.4368
-28.1735 0 -5.12423
28.5134 0 16.3001
-26.9342 0 62.1323
5.3544 0 3.09286
0.417914 0 4.87934
-17.4507 0 2.30037
-7.35895 0 7.5597
5.13853 0 -9.86776
-2.46458 0 -2.88799
22.765 0 -8.03047
-8.32172 0 9.30607
-18.6336 0 29.2364
2.16799 0 16.1981
-31.9943 0 9.66696
19.7738 0 4.42471
12.5229 0 0.332235
-1.18805 0 -9.84277
4.06947 0 25.5472
1.42486 0 -42.3924
-1.46599 0 -43.4567
-3.98388 0 25.4944
1.18384 0 -9.92233
-12.5133 0 0.340267
-19.7597 0 4.41812
31.9511 0 9.70381
-2.06469 0 16.2295
18.6318 0 29.2006
8.32013 0 9.30327
-22.7065 0 -8.01024
2.45138 0 -2.86817
-5.14535 0 -9.88144
7.35862 0 7.55719
17.4594 0 2.28838
-0.415465 0 4.8794
-5.35509 0 3.09336
26.9351 0 62.1332
-28.514 0 16.2972
28.1749 0 -5.12291
-2.4549 0 22.4368
-8.828 0 -1.4395
-3.37208 0 7.53868
-9.31807 0 -9.03667
4.28699 0 -16.2904
-13.4917 0 -1.89232
10.18 0 3.26134
-85.1336 0 29.1736
80.5231 0 -64.153
13.3731 0 -11.8292
-18.72 0 -12.1259
0.889766 0 -14.1829
-43.0983 0 39.4934
18.5308 0 -19.0233
82.1734 0 -12.866
-3.1898 0 6.20922
6.82973 0 6.14255
-17.4761 0 27.4339
0.771323 0 -3.63174
1.57986 0 -0.233549
-20.6487 0 -58.8858
-16.0034 0 -7.94854
24.96 0 1.69801
-3.06681 0 -2.28202
-25.9293 0 4.33521
-1.40761 0 22.21
10.6229 0 49.6682
3.13603 0 -13.8394
-1.85427 0 23.0042
-11.8505 0 2.10126
34.1562 0 -10.7852
-5.74017 0 14.3811
-1.7626 0 -19.0054
-14.7593 0 6.82034
-1.85969 0 -11.7605
1.14043 0 0.78322
9.26578 0 -4.86185
61.4374 0 -19.3772
-25.258 0 -12.3713
5.68399 0 10.43
5.66077 0 15.6422
-5.64999 0 17.5073
-5.74012 0 10.4416
25.1168 0 -12.3677
-61.1264 0 -19.2716
-9.76372 0 -5.02755
-1.13521 0 0.79022
1.81803 0 -11.7441
14.7625 0 6.82198
1.75899 0 -18.9921
5.7175 0 14.3533
-34.1444 0 -10.7873
11.8504 0 2.10671
1.84625 0 23.0107
-3.13475 0 -13.8403
-10.6166 0 49.6614
1.40809 0 22.2101
25.9288 0 4.33592
3.06394 0 -2.27778
-24.9614 0 1.69734
16.0051 0 -7.94967
20.6492 0 -58.8862
-1.58012 0 -0.233175
-0.771356 0 -3.63164
17.4759 0 27.4341
-6.82983 0 6.14248
3.18997 0 6.20937
-82.173 0 -12.8659
-18.5307 0 -19.0232
43.0977 0 39.493
-0.889805 0 -14.1832
-11.2605 0 29.0198
-19.3477 0 32.0034
33.9978 0 -27.1413
-11.0527 0 2.56788
7.53114 0 -14.5769
-7.87054 0 -4.93457
-20.7591 0 -1.55829
28.9579 0 -39.6698
9.63545 0 33.5494
5.16754 0 -3.91524
14.027 0 62.1245
-2.91529 0 4.92098
-2.01025 0 -3.36188
-5.339 0 0.164081
17.0626 0 -11.2631
-65.8579 0 -96.4325
10.2681 0 -2.55002
-8.09145 0 -36.1042
13.8461 0 -1.75807
-23.8318 0 -28.4257
1.25011 0 -6.92018
-29.2053 0 -16.1641
-0.556168 0 19.4222
11.9659 0 -7.00454
-4.42305 0 -0.450785
-74.3409 0 25.3799
27.8308 0 11.2893
14.5481 0 -5.12211
-4.11506 0 -15.8749
-16.978 0 21.2329
17.0604 0 20.4613
4.24045 0 -15.914
-14.509 0 -5.14157
-27.8127 0 11.2906
74.5391 0 25.4298
4.40409 0 -0.458132
-11.9451 0 -7.01063
0.509638 0 19.4242
29.2441 0 -16.1543
-1.25128 0 -6.93234
23.7067 0 -28.2928
-13.8415 0 -1.75122
8.07673 0 -36.094
-10.2687 0 -2.55027
65.773 0 -96.3234
-17.0665 0 -11.2617
5.34578 0 0.161763
2.01067 0 -3.36205
2.91515 0 4.92287
-14.028 0 62.125
-5.16743 0 -3.91527
-9.63622 0 33.5502
-28.9568 0 -39.6713
20.7578 0 -1.55785
7.87068 0 -4.9346
-7.53099 0 -14.5768
11.0525 0 2.56768
-33.9979 0 -27.1413
19.3478 0 32.0034
11.2607 0 29.02
-6.80314 0 -9.63183
-3.61625 0 -22.0359
24.3919 0 36.3588
-32.6914 0 -36.0182
-17.9875 0 -28.9738
18.5305 0 3.45805
30.9007 0 -28.3953
-53.1895 0 -93.2996
26.243 0 100.085
1.82593 0 -12.1295
16.7475 0 -20.3646
9.94556 0 2.29703
1.31564 0 6.84041
-5.05118 0 -2.84866
7.91209 0 -65.1172
-6.29643 0 -7.87589
42.3471 0 -20.972
-15.9772 0 9.98115
30.7395 0 7.85222
7.40536 0 -4.27632
-34.8054 0 34.0898
67.9373 0 -26.6168
-0.466755 0 2.63487
-37.1496 0 31.0773
-8.32382 0 -20.4838
14.3414 0 -23.9971
15.6447 0 -8.6922
-8.52179 0 -1.01233
-6.26301 0 1.10587
-2.04304 0 7.68474
1.99952 0 7.57446
6.2339 0 1.14943
8.51785 0 -1.01311
-15.6637 0 -8.73501
-14.316 0 -23.9349
8.30764 0 -20.4876
37.0776 0 31.0561
0.47821 0 2.62723
-68.0642 0 -27.0758
35.0551 0 34.5635
-7.39227 0 -4.27447
-30.7387 0 7.84004
15.9772 0 9.97773
-42.2365 0 -21.2207
6.30213 0 -7.86934
-7.91049 0 -65.1307
5.05433 0 -2.85172
-1.31548 0 6.84005
-9.94406 0 2.29699
-16.7493 0 -20.3656
-1.82651 0 -12.1289
-26.2425 0 100.084
53.1901 0 -93.2983
-30.9007 0 -28.3962
-18.5305 0 3.45809
17.9872 0 -28.9741
32.6913 0 -36.0181
-24.3923 0 36.359
3.6163 0 -22.0359
6.80315 0 -9.63146
-21.4687 0 0.160145
-19.051 0 22.3843
-23.3587 0 32.5085
71.4762 0 -19.784
26.8173 0 16.0802
-16.4353 0 24.2578
-3.27946 0 -26.5457
-8.83283 0 -6.91643
-2.18059 0 3.87138
-14.5281 0 28.939
-41.4233 0 -35.8675
-13.6291 0 -28.598
42.0647 0 -20.5947
20.2776 0 -38.3543
36.4894 0 -15.7786
23.5505 0 105.382
-26.4382 0 -12.6959
1.93623 0 6.87273
4.2351 0 11.8521
-1.56199 0 -47.6977
-71.4659 0 -67.0011
46.9599 0 6.3872
-16.6913 0 -8.9462
2.25463 0 -23.5276
47.0515 0 -19.5225
3.53431 0 17.0765
-9.29894 0 11.7743
101.176 0 16.807
12.1603 0 7.25125
2.78084 0 4.24556
-2.79681 0 4.28941
-12.1632 0 7.24677
-101.196 0 16.8084
9.32277 0 11.7803
-3.54197 0 17.0908
-46.9486 0 -19.5286
-2.23372 0 -23.463
16.7622 0 -9.01905
-46.9251 0 6.29867
71.4654 0 -67.0257
1.55546 0 -47.7011
-4.23337 0 11.8497
-1.94163 0 6.87623
26.4405 0 -12.7004
-23.579 0 105.521
-36.5076 0 -15.7838
-20.2739 0 -38.3425
-42.0636 0 -20.5983
13.6259 0 -28.5992
41.4205 0 -35.8649
14.5292 0 28.9385
2.18059 0 3.87147
8.83235 0 -6.91549
3.27829 0 -26.5455
16.4366 0 24.2572
-26.8172 0 16.08
-71.4761 0 -19.7841
23.3589 0 32.5084
19.0515 0 22.3842
21.4685 0 0.160261
19.4946 0 11.3584
4.68198 0 9.07562
-37.1727 0 -37.8094
-46.6972 0 2.79937
28.2245 0 14.7904
-24.8869 0 -7.4125
54.007 0 13.6436
20.0752 0 0.644565
0.659504 0 16.6282
6.46085 0 1.09025
-11.1893 0 -4.90211
24.1227 0 54.1342
5.46007 0 31.0017
-43.4191 0 -7.90023
-6.56631 0 29.5888
-14.535 0 5.67789
-50.8027 0 75.4909
4.50998 0 4.51921
-26.6579 0 -80.7031
5.32592 0 38.8664
34.6577 0 108.434
-1.29269 0 -30.4782
-2.32785 0 42.9177
-0.815933 0 -12.2059
-5.49491 0 5.92213
-48.7275 0 -4.8458
-66.0496 0 -15.8246
6.26798 0 4.54792
-4.22958 0 0.219679
2.41629 0 -9.75646
-2.40993 0 -9.71629
4.22123 0 0.201488
-6.25564 0 4.5253
66.0182 0 -15.7955
48.7418 0 -4.87216
5.47341 0 5.93291
0.818879 0 -12.2333
2.22961 0 42.9347
1.24501 0 -30.5191
-34.6923 0 108.393
-5.34593 0 38.8856
26.6621 0 -80.6707
-4.50372 0 4.50971
50.8186 0 75.505
14.5356 0 5.67615
6.52567 0 29.616