# vtk DataFile Version 3.0
SiWiRVisFile
ASCII
DATASET UNSTRUCTURED_GRID
POINTS 1600 DOUBLE
77.1168 100 73.2663
77.6949 100 74.1242
78.621 100 74.7245
80.3903 100 74.5201
81.5507 100 74.9871
82.598 100 75.3565
84.448 100 75.1007
85.613 100 75.401
86.7169 100 75.7777
85.1799 100 74.1753
90.6883 100 74.8013
91.5335 100 73.9973
89.6333 100 74.138
89.3994 100 72.583
89.1168 100 71.5191
92.6312 100 65.8851
93.1393 100 67.0052
95.1115 100 65.3013
92.9997 100 62.0393
97.271 100 63.782
104.473 100 49.7686
104.412 100 52.8109
105.223 100 51.8512
106.409 100 50.982
105.155 100 50.7811
108.021 100 51.1888
109.842 100 46.5588
111.06 100 46.5106
110.315 100 47.6505
111.737 100 47.4925
112.754 100 47.4918
114.178 100 47.6469
113.438 100 46.5127
114.649 100 46.5566
116.472 100 51.1877
119.337 100 50.7814
118.084 100 50.982
119.269 100 51.8514
120.08 100 52.811
120.018 100 49.7682
127.221 100 63.7833
131.493 100 62.0393
129.4 100 65.2999
131.351 100 67.0105
131.859 100 65.8867
135.376 100 71.5181
135.091 100 72.5815
134.865 100 74.1467
132.96 100 73.9942
133.803 100 74.8017
139.313 100 74.1752
137.776 100 75.7778
138.879 100 75.4009
140.044 100 75.1008
141.894 100 75.3567
142.942 100 74.9872
144.102 100 74.52
145.871 100 74.7245
146.798 100 74.1242
147.376 100 73.2663
76.7465 100 74.6273
77.6234 100 75.3059
79.584 100 75.2522
80.5986 100 75.6175
81.6885 100 76.069
83.6103 100 75.8955
84.6144 100 76.3412
85.8064 100 76.4848
86.848 100 76.9323
87.9785 100 77.0325
89.1262 100 76.8963
92.6279 100 73.5006
90.5685 100 73.0919
91.2486 100 71.5394
92.3429 100 68.9457
90.2019 100 71.9205
93.7602 100 65.963
96.1627 100 64.3026
97.1632 100 65.1907
99.3217 100 64.5113
104.183 100 51.506
99.061 100 57.0271
105.325 100 58.2802
110.345 100 50.3743
105.957 100 50.0186
108.522 100 52.253
109.009 100 50.7693
109.273 100 49.5497
108.657 100 47.3043
111.291 100 48.5896
113.201 100 48.5876
115.833 100 47.301
115.215 100 49.5507
115.483 100 50.7692
115.969 100 52.2511
118.535 100 50.0188
114.154 100 50.3788
119.093 100 58.2451
125.431 100 57.0271
120.309 100 51.5061
125.18 100 64.5071
127.31 100 65.1984
128.331 100 64.3114
130.738 100 65.9653
134.293 100 71.9205
132.152 100 68.9429
133.253 100 71.5399
133.928 100 73.0892
131.864 100 73.5017
135.365 100 76.9013
136.514 100 77.0322
137.644 100 76.9327
138.686 100 76.4848
139.878 100 76.3409
140.882 100 75.8956
142.804 100 76.069
143.894 100 75.6176
144.908 100 75.2523
146.869 100 75.306
147.746 100 74.6273
76.7015 100 75.8305
77.7574 100 76.4217
78.6675 100 75.8056
79.7177 100 76.2817
80.7433 100 76.6796
82.7167 100 76.612
83.7922 100 77.0848
84.9642 100 77.3924
86.0656 100 77.7182
87.1365 100 77.9235
88.2561 100 78.1951
89.3689 100 78.2226
91.2984 100 77.5222
91.7304 100 72.8112
93.1925 100 70.2791
93.777 100 69.3635
94.2708 100 67.1892
95.0478 100 66.3276
96.0791 100 65.7268
98.3314 100 63.904
99.401 100 63.1462
103.525 100 59.8301
105.697 100 59.3922
106.707 100 58.8717
106.006 100 55.7253
106.988 100 57.7163
107.261 100 56.597
106.006 100 57.2824
110.382 100 49.2524
111.678 100 49.6861
112.817 100 49.6877
114.104 100 49.2654
118.486 100 57.2923
117.181 100 56.575
117.525 100 57.723
118.511 100 55.7682
117.804 100 58.8547
118.793 100 59.379
120.949 100 59.8441
125.092 100 63.152
126.147 100 63.8952
128.432 100 65.6964
129.439 100 66.3366
130.221 100 67.1869
130.725 100 69.3663
131.307 100 70.2731
132.765 100 72.816
133.2 100 77.5159
135.124 100 78.2216
136.236 100 78.1953
137.355 100 77.9237
138.426 100 77.7181
139.528 100 77.392
140.7 100 77.0841
141.776 100 76.612
143.749 100 76.6797
144.775 100 76.2818
145.825 100 75.8056
146.735 100 76.4217
147.791 100 75.8305
76.7639 100 76.9902
77.7203 100 77.5346
78.8422 100 76.9072
79.8458 100 77.3476
81.7958 100 77.287
82.9206 100 77.7861
83.9865 100 78.2575
85.1406 100 78.4577
86.3795 100 78.7817
87.5057 100 79.1566
88.7428 100 79.2421
89.8534 100 79.2958
90.6971 100 78.4593
92.9233 100 72.2084
92.4832 100 71.251
94.2669 100 70.2953
95.2097 100 69.2023
94.7005 100 68.2218
95.3778 100 67.4301
96.4974 100 66.916
97.606 100 66.7099
100.603 100 65.1121
104.599 100 59.3206
105.149 100 61.6945
105.476 100 60.4702
106.445 100 60.0398
108.968 100 59.7233
110.182 100 59.5205
108.003 100 57.307
111.357 100 50.7366
113.142 100 50.7339
116.492 100 57.3251
114.298 100 59.5062
115.51 100 59.6906
118.049 100 60.0643
119.031 100 60.4552
119.333 100 61.7057
119.88 100 59.3368
123.906 100 65.1157
126.879 100 66.7152
127.991 100 66.9008
129.094 100 67.4334
129.777 100 68.2211
129.259 100 69.202
130.225 100 70.2925
132.018 100 71.2535
131.577 100 72.2107
133.795 100 78.4595
134.639 100 79.2962
135.749 100 79.2419
136.986 100 79.1585
138.113 100 78.783
139.352 100 78.4572
140.506 100 78.2572
141.572 100 77.7861
142.697 100 77.287
144.646 100 77.3477
145.65 100 76.9073
146.772 100 77.5346
147.729 100 76.9902
76.6497 100 78.0806
77.6324 100 78.5915
78.7249 100 78.1787
80.8098 100 77.971
82.0062 100 78.4248
83.0987 100 79.0163
84.2828 100 79.2537
85.4143 100 79.6124
86.6182 100 79.8779
88.0392 100 80.1389
88.8238 100 81.1141
90.8733 100 79.6398
91.9434 100 78.3154
94.5066 100 72.1753
93.6298 100 71.225
96.1558 100 70.6796
96.2419 100 69.6049
96.0926 100 68.4072
97.2894 100 67.7648
98.3515 100 67.4978
98.5829 100 65.5632
102.993 100 65.328
106.343 100 61.7672
107.485 100 61.0231
107.549 100 59.5992
108.569 100 61.0988
109.629 100 60.6384
110.401 100 61.612
107.801 100 58.4501
111.742 100 52.2383
112.748 100 52.2329
116.733 100 58.4403
114.029 100 61.5432
114.829 100 60.6193
115.895 100 61.2117
116.926 100 59.6389
117.023 100 61.0348
118.153 100 61.8758
121.509 100 65.3177
125.946 100 65.5336
126.144 100 67.5161
127.213 100 67.7683
128.386 100 68.4159
128.241 100 69.5977
128.391 100 70.6654
130.866 100 71.2168
130.013 100 72.1797
132.566 100 78.3111
133.618 100 79.642
135.668 100 81.1103
136.452 100 80.1394
137.875 100 79.8785
139.078 100 79.6122
140.21 100 79.2535
141.394 100 79.0161
142.486 100 78.4249
143.683 100 77.971
145.767 100 78.1787
146.86 100 78.5915
147.842 100 78.0806
76.7006 100 79.1939
77.7966 100 79.6722
78.8581 100 79.4275
79.8331 100 78.5995
80.834 100 79.1213
82.0378 100 79.5369
82.8747 100 80.1877
84.5475 100 80.3257
85.561 100 80.7051
86.5987 100 80.9289
87.692 100 81.1642
89.9921 100 80.4146
91.8619 100 80.1684
91.9955 100 76.7413
93.2298 100 76.3715
95.1228 100 71.2158
96.9319 100 71.412
97.3394 100 70.1736
97.1596 100 69.0595
99.2404 100 68.1809
99.2588 100 66.4849
101.491 100 65.6593
103.672 100 64.5065
105.094 100 64.2428
105.57 100 62.8204
107.399 100 62.061
108.49 100 62.5032
109.418 100 61.8627
111.503 100 62.1262
111.627 100 60.2592
112.851 100 60.2499
113.072 100 62.2165
115.037 100 61.9049
115.97 100 62.4895
117.055 100 62.1143
118.795 100 62.8046
119.33 100 64.2865
120.77 100 64.5491
123.009 100 65.6447
125.228 100 66.4919
125.245 100 68.1619
127.338 100 69.0232
127.073 100 70.1208
127.497 100 71.393
129.4 100 71.2292
131.263 100 76.3715
132.494 100 76.7468
132.63 100 80.1755
134.506 100 80.4119
136.801 100 81.1648
137.894 100 80.9299
138.932 100 80.7047
139.945 100 80.325
141.618 100 80.1877
142.455 100 79.5369
143.658 100 79.1213
144.659 100 78.5993
145.634 100 79.4274
146.696 100 79.6723
147.792 100 79.1939
76.3674 100 80.2235
77.2969 100 80.7912
79.1333 100 80.6355
79.9355 100 79.8258
80.9106 100 80.2638
81.7229 100 81.2233
83.6256 100 81.1826
84.7587 100 81.6218
85.8668 100 81.8646
86.9602 100 81.9555
88.1888 100 82.1249
91.0141 100 80.8334
92.0427 100 81.2572
93.0702 100 77.4641
95.6157 100 73.612
96.0666 100 72.0831
97.505 100 72.6698
98.2778 100 70.7902
98.223 100 69.3222
100.101 100 67.3423
100.347 100 66.1135
102.571 100 66.6539
104.55 100 65.2406
106.882 100 63.5454
108.439 100 63.6979
109.377 100 63.1766
110.228 100 65.2406
110.432 100 62.8156
109.186 100 66.0187
110.625 100 67.1728
113.994 100 66.5941
115.086 100 66.2327
114.115 100 62.78
114.355 100 65.2156
115.152 100 63.1886
116.169 100 63.5953
117.924 100 63.3349
119.906 100 65.2528
121.94 100 66.6141
124.133 100 66.1332
124.38 100 67.3386
126.289 100 69.4301
126.239 100 70.836
127.021 100 72.6785
128.383 100 72.053
128.896 100 73.6137
131.414 100 77.4657
132.459 100 81.2634
133.483 100 80.834
136.303 100 82.1245
137.534 100 81.9563
138.628 100 81.8664
139.734 100 81.6198
140.868 100 81.1815
142.77 100 81.2235
143.582 100 80.2638
144.557 100 79.8256
145.359 100 80.636
147.196 100 80.7914
148.125 100 80.2234
76.3332 100 81.2657
77.2764 100 81.9983
78.1717 100 81.2961
79.3378 100 81.9081
80.1391 100 81.1124
80.3747 100 82.5653
82.8147 100 81.9495
83.903 100 82.3316
85.0438 100 82.7637
86.289 100 82.8861
87.3116 100 83.1129
88.4031 100 83.165
89.9222 100 81.6543
89.4711 100 82.7675
90.1268 100 83.7867
92.9167 100 80.2952
96.7812 100 73.4856
98.0863 100 71.7996
99.9397 100 70.3697
99.4158 100 69.2902
100.205 100 68.5597
101.221 100 66.9065
103.839 100 66.0111
106.226 100 64.3882
107.581 100 64.4183
109.396 100 64.3242
108.33 100 65.3919
107.731 100 67.5804
109.008 100 67.1688
110.636 100 68.4782
113.738 100 68.4921
115.556 100 67.176
116.588 100 67.4573
115.974 100 65.1109
115.17 100 64.3363
117.022 100 64.3257
118.248 100 64.4121
120.659 100 65.9821
123.269 100 66.9267
124.303 100 68.5737
125.096 100 69.2906
124.56 100 70.3713
126.371 100 71.8518
127.724 100 73.5147
131.575 100 80.2834
134.364 100 83.7823
135.022 100 82.7679
134.571 100 81.6537
136.095 100 83.1587
137.184 100 83.1163
138.205 100 82.889
139.449 100 82.7617
140.59 100 82.3312
141.679 100 81.9489
144.117 100 82.5653
144.353 100 81.1123
145.155 100 81.9079
146.321 100 81.2965
147.216 100 81.998
148.16 100 81.2655
76.3046 100 82.5344
77.2759 100 83.1515
78.384 100 82.4182
79.4478 100 83.1066
80.5429 100 83.6727
79.8483 100 84.976
81.5084 100 83.1608
82.7562 100 83.1295
84.5977 100 83.8914
83.8646 100 84.7328
85.6859 100 83.8079
86.6657 100 83.9169
87.8749 100 84.1519
89.0054 100 83.9796
91.2132 100 83.5841
92.5346 100 79.2876
97.3519 100 74.7124
97.9187 100 73.8047
99.7299 100 71.6436
100.775 100 71.0071
[...]
POINT_DATA 1600
SCALARS mass double
LOOKUP_TABLE default
1
1
1
1
1
1
1
1
1
1
1
1
1
1
1
1
1
1
1
1
1
1
1
1
1
1
1
1
1
1
1
1
1
1
1
1
1
1
1
1
1
1
1
1
1
1
1
1
1
1
1
1
1
1
1
1
1
1
1
1
1
1
1
1
1
1
1
1
1
1
1
1
1
1
1
1
1
1
1
1
1
1
1
1
1
1
1
1
1
1
1
1
1
1
1
1
1
1
1
1
1
1
1
1
1
1
1
1
1
1
1
1
1
1
1
1
1
1
1
1
1
1
1
1
1
1
1
1
1
1
1
1
1
1
1
1
1
1
1
1
1
1
1
1
1
1
1
1
1
1
1
1
1
1
1
1
1
1
1
1
1
1
1
1
1
1
1
1
1
1
1
1
1
1
1
1
1
1
1
1
1
1
1
1
1
1
1
1
1
1
1
1
1
1
1
1
1
1
1
1
1
1
1
1
1
1
1
1
1
1
1
1
1
1
1
1
1
1
1
1
1
1
1
1
1
1
1
1
1
1
1
1
1
1
1
1
1
1
1
1
1
1
1
1
1
1
1
1
1
1
1
1
1
1
1
1
1
1
1
1
1
1
1
1
1
1
1
1
1
1
1
1
1
1
1
1
1
1
1
1
1
1
1
1
1
1
1
1
1
1
1
1
1
1
1
1
1
1
1
1
1
1
1
1
1
1
1
1
1
1
1
1
1
1
1
1
1
1
1
1
1
1
1
1
1
1
1
1
1
1
1
1
1
1
1
1
1
1
1
1
1
1
1
1
1
1
1
1
1
1
1
1
1
1
1
1
1
1
1
1
1
1
1
1
1
1
1
1
1
1
1
1
1
1
1
1
1
1
1
1
1
1
1
1
1
1
1
1
1
1
1
1
1
1
1
1
1
1
1
1
1
1
1
1
1
1
1
1
1
1
1
1
1
1
1
1
1
1
1
1
1
1
1
1
1
1
1
1
1
1
1
1
1
1
1
1
1
1
1
1
1
1
1
1
1
1
1
1
1
1
1
1
1
1
1
1
1
1
1
1
1
1
1
1
1
1
1
1
1
1
1
1
1
1
1
1
1
1
1
1
1
1
1
1
1
1
1
1
1
1
1
1
1
1
1
1
1
1
1
1
1
1
1
1
1
1
1
1
1
1
1
1
1
1
1
1
1
1
1
1
1
1
1
1
1
1
1
1
1
1
1
1
1
1
1
1
1
1
1
1
1
1
1
1
1
1
1
1
1
1
1
1
1
1
1
1
1
1
1
1
1
1
1
1
1
1
1
1
1
1
1
1
1
1
1
1
1
1
1
1
1
1
1
1
1
1
1
1
1
1
1
1
1
1
1
1
1
1
1
1
1
1
1
1
1
1
1
1
1
1
1
1
1
1
1
1
1
1
1
1
1
1
1
1
1
1
1
1
1
1
1
1
1
1
1
1
1
1
1
1
1
1
1
1
1
1
1
1
1
1
1
1
1
1
1
1
1
1
1
1
1
1
1
1
1
1
1
1
1
1
1
1
1
1
1
1
1
1
1
1
1
1
1
1
1
1
1
1
1
1
1
1
1
1
1
1
1
1
1
1
1
1
1
1
1
1
1
1
1
1
1
1
1
1
1
1
1
1
1
1
1
1
1
1
1
1
1
1
1
1
1
1
1
1
1
1
1
1
1
1
1
1
1
1
1
1
1
1
1
1
1
1
1
1
1
1
1
1
1
1
1
1
1
1
1
1
1
1
1
1
1
1
1
1
1
1
1
1
1
1
1
1
1
1
1
1
1
1
1
1
1
1
1
1
1
1
1
1
1
1
1
1
1
1
1
1
1
1
1
1
1
1
1
1
1
1
1
1
1
1
1
1
1
1
1
1
1
1
1
1
1
1
1
1
1
1
1
1
1
1
1
1
1
1
1
1
1
1
1
1
1
1
1
1
1
1
1
1
1
1
1
1
1
1
1
1
1
1
1
1
1
1
1
1
1
1
1
1
1
1
1
1
1
1
1
1
1
1
1
1
1
1
1
1
1
1
1
1
1
1
1
1
1
1
1
1
1
1
1
1
1
1
1
1
1
1
1
1
1
1
1
1
1
1
1
1
1
1
1
1
1
1
1
1
1
1
1
1
1
1
1
1
1
1
1
1
1
1
1
1
1
1
1
1
1
1
1
1
1
1
1
1
1
1
1
1
1
1
1
1
1
1
1
1
1
1
1
1
1
1
1
1
1
1
1
1
1
1
1
1
1
1
1
1
1
1
1
1
1
1
1
1
1
1
1
1
1
1
1
1
1
1
1
1
1
1
1
1
1
1
1
1
1
1
1
1
1
1
1
1
1
1
1
1
1
1
1
1
1
1
1
1
1
1
1
1
1
1
1
1
1
1
1
1
1
1
1
1
1
1
1
1
1
1
1
1
1
1
1
1
1
1
1
1
1
1
1
1
1
1
1
1
1
1
1
1
1
1
1
1
1
1
1
1
1
1
1
1
1
1
1
1
1
1
1
1
1
1
1
1
1
1
1
1
1
1
1
1
1
1
1
1
1
1
1
1
1
1
1
1
1
1
1
1
1
1
1
1
1
1
1
1
1
1
1
1
1
1
1
1
1
1
1
1
1
1
1
1
1
1
1
1
1
1
1
1
1
1
1
1
1
1
1
1
1
1
1
1
1
1
1
1
1
1
1
1
1
1
1
1
1
1
1
1
1
1
1
1
1
1
1
1
1
1
1
1
1
1
1
1
1
1
1
1
1
1
1
1
1
1
1
1
1
1
1
1
1
1
1
1
1
1
1
1
1
1
1
1
1
1
1
1
1
1
1
1
1
1
1
1
1
1
1
1
1
1
1
1
1
1
1
1
1
1
1
1
1
1
1
1
1
1
1
1
1
1
1
1
1
1
1
1
1
1
1
1
1
1
1
1
1
1
1
1
1
1
1
1
1
1
1
1
1
1
1
1
1
1
1
1
1
1
1
1
1
1
1
1
1
1
1
1
1
1
1
1
1
1
1
1
1
1
1
1
1
1
1
1
1
1
1
1
1
1
1
1
1
1
1
1
1
1
1
1
1
1
1
1
1
1
1
1
1
1
1
1
1
1
1
1
1
1
1
1
1
1
1
1
1
1
1
1
1
1
1
1
1
1
1
1
1
1
1
1
1
1
1
1
1
1
1
1
1
1
1
1
1
1
1
1
1
1
1
1
1
1
1
1
1
1
1
1
1
1
1
1
1
1
1
1
1
1
1
1
1
1
1
1
1
1
1
1
1
1
1
1
1
1
1
1
1
1
1
1
1
1
1
1
1
1
1
1
1
1
1
1
1
1
1
1
1
1
1
1
1
1
1
1
1
1
1
1
1
1
1
1
1
1
1
1
1
1
1
1
1
1
1
1
1
1
1
1
1
1
1
1
1
1
1
1
1
1
1
1
1
1
1
1
1
1
1
1
1
1
1
1
1
1
1
1
1
1
1
1
1
1
1
1
1
1
1
1
1
1
1
1
1
1
1
1
1
1
1
1
1
1
1
1
1
1
1
1
1
1
1
1
1
1
1
1
1
1
1
1
1
1
1
1
1
1
1
1
1
1
1
1
1
1
1
1
1
1
1
1
1
1
1
1
1
1
VECTORS force double
-34.8634 0 -40.6675
47.5773 0 48.0235
-8.51648 0 -11.8821
18.5072 0 -2.89633
-21.0499 0 -12.5141
4.66268 0 21.5904
12.7365 0 13.9604
-15.0225 0 -9.73976
-12.2591 0 11.668
-2.26232 0 19.4257
-3.59218 0 -15.0077
-3.02061 0 -17.6627
16.5225 0 -4.66746
-26.1346 0 49.3828
5.74554 0 -4.45248
8.05934 0 11.4553
8.12826 0 -18.6735
-27.291 0 -83.0873
0 0 0
-36.9025 0 10.6656
12.2874 0 13.4118
6.06228 0 -20.0122
8.4696 0 30.2351
-1.31245 0 29.0849
-9.69733 0 -20.0394
-19.9797 0 16.1581
9.48876 0 14.0442
-9.59323 0 18.3681
13.0576 0 -7.71171
-101.643 0 2.71314
101.689 0 2.47407
-13.1155 0 -8.03265
9.40431 0 18.562
-9.1775 0 13.9918
19.7145 0 16.0083
9.73404 0 -20.0206
1.26458 0 29.1632
-8.45782 0 30.253
-6.06355 0 -20.0122
-12.2975 0 13.4203
28.5205 0 11.8407
0 0 0
40.0779 0 -73.8365
-7.54594 0 -18.8225
-5.97 0 11.3534
-5.61 0 -4.37409
30.1443 0 52.6212
-16.3897 0 -4.43923
3.07406 0 -17.0932
3.62024 0 -14.9657
2.26728 0 19.4334
12.1573 0 11.682
15.0609 0 -9.73339
-12.7304 0 13.9619
-4.65169 0 21.5655
21.05 0 -12.5643
-18.5184 0 -2.83383
8.5093 0 -11.8752
-47.6013 0 48.0367
34.8708 0 -40.6854
-19.4306 0 12.4436
45.6486 0 -21.3992
-6.56419 0 -57.3154
32.4038 0 -15.5818
4.78974 0 21.0417
-10.4337 0 5.14037
25.3243 0 -19.1925
-8.41208 0 24.4585
-15.9526 0 -69.8999
-3.36029 0 18.8696
-7.79598 0 15.2105
-10.4492 0 -8.10633
-0.0201504 0 -5.37894
17.5606 0 9.00584
8.6904 0 5.07135
36.7167 0 -22.0445
11.3644 0 20.202
13.1009 0 14.3574
-9.17828 0 -4.07928
-5.57155 0 1.51479
2.78938 0 -1.97229
0 0 0
10.2641 0 11.6831
-30.8069 0 -13.9393
-14.6306 0 -30.0047
-2.78451 0 -12.999
31.0117 0 -19.229
11.3286 0 15.9534
9.83322 0 -3.57723
1.57539 0 -7.63195
-1.02023 0 -6.76291
-9.9163 0 -3.60072
-11.3182 0 16.2037
-31.0193 0 -19.1075
2.78287 0 -13.0174
14.6399 0 -30.1345
32.6498 0 -11.8124
-7.93677 0 18.6802
0 0 0
-2.79635 0 -1.96747
3.49668 0 2.4228
7.98054 0 -3.35427
-12.7406 0 14.8173
-13.4294 0 20.1136
-38.8202 0 -24.7426
-8.8388 0 5.1979
-19.5429 0 8.13093
-0.088246 0 -5.62743
10.5219 0 -8.29633
7.89513 0 15.4214
3.12037 0 18.9314
16.0092 0 -70.2263
8.43073 0 24.5085
-25.1756 0 -19.2695
10.2787 0 5.12886
-4.75945 0 21.1198
-32.3988 0 -15.6266
6.57466 0 -57.3031
-45.6549 0 -21.4012
19.4462 0 12.445
-14.4498 0 18.2809
-10.0121 0 2.50519
-14.2359 0 23.1553
2.67448 0 18.002
22.2468 0 40.2809
2.32913 0 -1.13652
0.200439 0 1.49534
-6.53327 0 -15.9987
-32.528 0 -10.1932
43.164 0 70.6106
-15.0402 0 0.817666
7.96656 0 10.0826
-75.8373 0 -27.3389
-5.91791 0 -1.35941
-59.1027 0 -26.7462
-4.68753 0 -53.1999
-1.17379 0 -16.9721
-4.58945 0 74.6141
38.4246 0 20.7642
40.5743 0 5.51368
-9.70282 0 16.0415
10.9061 0 -4.3331
-99.5339 0 -113.747
-3.00307 0 -7.26142
4.46621 0 8.00984
-0.0329934 0 12.2206
-62.8849 0 -40.2341
-18.2685 0 -4.74174
4.82468 0 2.09619
-7.53542 0 -16.6643
7.45008 0 -18.4317
-6.15502 0 -0.549498
29.3254 0 -19.0084
68.2351 0 -48.4323
-9.77841 0 0.122657
-4.30625 0 8.13608
-4.51481 0 2.19671
56.0843 0 -80.5457
-10.657 0 -4.11864
10.2008 0 16.5902
-30.4255 0 3.02033
-49.8481 0 22.9326
1.66509 0 61.4297
-3.2962 0 -13.6561
3.49396 0 -57.0559
57.8338 0 -22.4248
5.66657 0 -1.67109
83.2395 0 -32.0856
-8.13107 0 10.0591
15.0816 0 0.75399
-42.7919 0 70.784
32.5591 0 -9.62523
6.41516 0 -15.9691
-0.252913 0 1.58175
-2.22352 0 -1.11332
-22.2937 0 40.2194
-2.68911 0 17.996
14.2358 0 23.152
10.0181 0 2.52582
14.4536 0 18.2865
1.08167 0 -23.2749
19.209 0 -20.6614
-44.9348 0 21.7375
9.35839 0 45.152
-4.68077 0 -2.35332
-2.11595 0 -0.553107
-14.2296 0 -65.2704
9.04259 0 28.7992
-5.53509 0 7.31672
0.811473 0 -20.3195
-13.5904 0 -10.6095
-13.1251 0 -19.7525
-4.96057 0 18.5184
14.0781 0 38.5209
-15.3045 0 -39.587
53.0102 0 40.5974
-3.64388 0 3.38989
-31.2894 0 39.4279
47.4481 0 -40.7057
-12.8675 0 1.17672
-6.1046 0 -26.806
-35.7361 0 -86.0876
-4.54219 0 0.200808
18.7086 0 -1.48387
-35.5317 0 29.7108
157.76 0 75.0757
0.667196 0 5.39436
-14.1404 0 15.4604
57.688 0 53.1169
21.4046 0 17.2132
-22.1541 0 18.7623
-58.0087 0 64.4698
13.811 0 15.1511
-4.40944 0 6.88747
-121.399 0 42.8399
39.9541 0 26.1194
-19.6308 0 0.150643
10.7524 0 2.53323
41.6179 0 -75.8368
4.99673 0 -24.654
12.6788 0 1.85464
-43.6565 0 -40.8577
31.1864 0 38.3416
10.0792 0 -0.034125
-49.0603 0 40.5872
14.2601 0 -39.7907
-14.5389 0 38.3583
4.47556 0 17.9654
12.8593 0 -20.712
13.3704 0 -10.5431
-0.68006 0 -20.5289
5.53143 0 6.49745
-9.06944 0 28.9287
14.26 0 -65.3484
2.08771 0 -0.59847
4.65481 0 -2.35942
-9.29972 0 45.1481
44.9213 0 21.7581
-19.208 0 -20.718
-1.09617 0 -23.2938
6.40478 0 -0.103873
16.1875 0 20.1042
0.453224 0 -2.83022
7.81728 0 -6.29475
-10.6214 0 -3.21145
-4.04837 0 -6.5081
17.1833 0 41.3906
8.43096 0 -24.6619
-6.77029 0 -37.4449
7.72626 0 -8.81313
2.84647 0 0.743351
16.1471 0 10.4229
53.2573 0 61.5772
-4.67045 0 -12.6404
22.8805 0 61.498
-19.0336 0 5.32201
-7.96644 0 -8.71734
-0.774247 0 4.88819
-26.2557 0 21.4124
27.8249 0 3.1209
0.871725 0 -4.39991
-31.8128 0 22.1935
-20.0257 0 -4.64723
-21.441 0 -59.2528
0.993011 0 5.58137
21.7528 0 4.86923
3.44742 0 12.5463
90.8738 0 -16.9733
-1.80748 0 12.6568
-106.05 0 -4.85967
106.061 0 -6.02629
-12.6781 0 27.234
-20.4301 0 -1.92012
2.77493 0 10.3961
3.58142 0 0.503057
9.19635 0 -4.85068
5.26325 0 -25.8245
4.41726 0 -2.81947
38.0323 0 18.6643
-2.85177 0 -0.185652
-20.6062 0 0.101014
25.567 0 19.9087
-0.0321687 0 2.7846
-1.81665 0 -6.41835
-2.11479 0 29.1683
-22.4066 0 62.9319
7.12453 0 -11.2626
-56.7866 0 68.6141
-15.9886 0 10.3126
-2.73012 0 0.782085
-7.86096 0 -8.30307
6.7945 0 -36.8566
-8.39495 0 -24.8487
-17.2041 0 41.2876
4.06185 0 -6.499
10.7753 0 -3.14404
-7.82449 0 -6.3149
-0.467969 0 -2.83539
-16.1673 0 20.1937
-6.39306 0 -0.0754328
14.0398 0 -5.50373
-26.2388 0 24.3629
23.7582 0 -11.1174
-9.21229 0 -0.115207
13.5207 0 -0.264302
-37.029 0 -19.0209
35.3136 0 21.8614
-23.3277 0 17.9294
-10.9168 0 19.8452
19.2391 0 40.3692
1.25008 0 -15.0465
-9.13227 0 4.70432
-19.3042 0 -20.9343
50.0862 0 -25.9142
-10.592 0 -1.96424
0.96197 0 -2.7865
49.9055 0 10.1714
-16.0838 0 0.965495
4.14719 0 -31.4802
-49.8891 0 -27.7128
2.95769 0 10.9587
38.4173 0 46.1211
29.4366 0 -13.587
1.09537 0 6.46842
7.79118 0 -9.23939
16.8655 0 58.854
-10.4009 0 -3.68242
-87.0083 0 25.3598
-16.8458 0 -0.140007
6.72029 0 1.27478
-6.38292 0 1.51652
12.9958 0 -1.82262
2.94579 0 17.5448
26.7163 0 -23.2381
-6.84263 0 23.376
71.926 0 -47.831
13.3625 0 4.35447
-24.4867 0 -14.7859
-41.2404 0 46.0857
0.0631986 0 5.85991
53.5032 0 -28.8973
-13.0657 0 -29.0432
63.3404 0 32.6076
-23.8512 0 -8.72637
0.305834 0 -5.17845
10.6751 0 -1.73251
-52.3233 0 -27.4352
20.5115 0 -23.1617
8.38455 0 5.99004
-0.764167 0 -15.1267
-19.1962 0 39.9315
10.6729 0 20.0591
23.4607 0 18.0515
-35.3324 0 21.8679
37.0348 0 -19.0162
-13.5334 0 -0.257201
9.22685 0 -0.110736
-23.7578 0 -11.1222
26.2529 0 24.343
-14.0812 0 -5.5966
-8.50962 0 -41.8654
-48.3592 0 -53.0947
-10.0676 0 -1.17071
-27.6463 0 -13.9294
33.7454 0 12.0653
1.35444 0 -7.04651
16.2806 0 -5.89696
4.10104 0 -15.9028
-17.9757 0 -16.1236
11.7738 0 45.2569
-4.80859 0 -14.6202
-21.6381 0 6.28169
11.353 0 -2.27729
-17.5983 0 13.6154
10.5581 0 -6.29299
-14.4165 0 -0.569512
-9.17693 0 29.7676
11.4561 0 -71.4648
14.58 0 10.5793
-2.91126 0 -3.94719
-6.76486 0 74.0909
-1.78757 0 -2.85835
15.4444 0 -37.3186
15.7474 0 -28.2156
-19.7029 0 3.92716
20.5145 0 -14.7587
-18.6243 0 -1.60185
3.01975 0 -22.9287
34.1674 0 19.4923
-13.5248 0 18.0383
11.3155 0 -5.91109
-24.2164 0 -47.2288
-0.557431 0 -24.9899
16.6339 0 8.26566
-23.7145 0 4.49619
2.10201 0 13.0367
-77.8094 0 40.4025
48.0784 0 -55.584
2.70777 0 -4.17047
3.34837 0 63.3842
3.8323 0 -3.35937
-47.7819 0 -29.048
-11.768 0 -70.9893
12.4767 0 21.9781
9.49448 0 -3.2874
-10.7399 0 -5.48764
17.0855 0 13.2684
-11.5622 0 -0.647585
22.8742 0 5.67861
5.53163 0 -20.6925
-11.866 0 45.3062
17.2346 0 -15.9099
-3.59634 0 -15.7157
-16.201 0 -5.74024
-1.38412 0 -7.02688
-33.7139 0 12.0328
27.5309 0 -13.9364
10.0288 0 -1.27286
48.4353 0 -53.0794
8.45083 0 -41.885
-10.4777 0 77.4969
9.36729 0 -10.46
98.2659 0 53.7708
15.1543 0 -7.11969
7.03058 0 -6.02024
18.025 0 -19.2659
-4.71638 0 6.51704
-4.69429 0 0.791655
9.48655 0 -0.0502792
-48.8272 0 -24.7911
79.3862 0 -50.185
-34.0394 0 -44.7529
-8.32517 0 -11.748
-4.61209 0 7.90884
3.06516 0 -45.9955
43.299 0 28.2031
-4.12943 0 16.7784
-8.74565 0 10.5653
-36.6631 0 -25.5021
-22.4132 0 25.2306
69.6874 0 -4.87908
-2.95914 0 -9.11614
-17.2278 0 53.8158
-11.1853 0 33.8087
-3.98175 0 18.1656
-1.58991 0 4.78018
-39.6193 0 -33.453
-0.69623 0 0.527351
-16.0656 0 -2.61316
60.3791 0 -32.6743
128.684 0 -73.5143
-12.4418 0 48.5985
-7.39012 0 -36.0123
5.56627 0 -3.26074
1.80854 0 -6.9357
12.9261 0 8.64815
-25.033 0 14.8563
14.7085 0 53.0828
1.04599 0 -8.65877
-82.1156 0 -0.946446
26.3772 0 25.0896
35.3245 0 -22.0448
33.7678 0 -8.73928
3.1174 0 15.6691
-46.7329 0 26.2576
-3.21188 0 -46.8593
5.22295 0 8.09376
8.28054 0 -11.8186
31.8468 0 -39.2567
-80.1679 0 -52.9023
48.7602 0 -25.3687
-9.4337 0 0.335037
4.52376 0 0.373641
4.56089 0 6.39951
-18.0813 0 -19.3354
-7.01411 0 -5.9199
-15.329 0 -7.25397
-98.3183 0 53.7502
-9.23875 0 -10.3772
10.418 0 77.5748
5.07174 0 4.35442
-51.1409 0 -44.6429
-20.6003 0 -16.9358
-29.2966 0 -6.94768
-22.0942 0 13.5877
36.0043 0 53.5965
4.78185 0 -39.4339
-8.39299 0 -7.8784
-4.42276 0 -10.7238
0.251408 0 -1.93614
-159.647 0 -25.5068
130.096 0 92.3597
-39.3538 0 -27.9557
97.3962 0 -43.8021
6.52931 0 -8.4045
-68.9376 0 40.8233
-26.6971 0 4.58249
18.3878 0 -30.1295
2.87291 0 -10.2748
-5.4665 0 83.1521
0.336224 0 -6.03731
1.98894 0 -20.309
-12.8224 0 -14.4271
10.2351 0 -1.37893
2.30364 0 -22.1409
4.44376 0 -16.8375
-0.599491 0 -23.8898
2.81211 0 -6.90722
13.3593 0 14.3179
-60.048 0 -16.0242
-32.4193 0 -2.37046
-2.0028 0 -16.8844
31.4334 0 -6.65135
-16.2849 0 -98.1733
7.07462 0 -20.3179
5.71771 0 -18.6022
-82.971 0 25.1879
13.7369 0 -15.2004
-3.73169 0 -20.1095
1.01673 0 -6.93078
-24.2914 0 39.6769
-1.14238 0 -8.66619
-16.7885 0 -30.7122
15.4004 0 11.9477
60.7961 0 30.42
-6.98232 0 -8.06481
-99.5017 0 -40.8179
39.1243 0 -28.8206
-126.116 0 94.2398
158.275 0 -26.098
-0.866638 0 -2.60493
4.2091 0 -10.7328
8.39426 0 -7.85507
-5.17774 0 -40.345
-35.4094 0 53.1483
22.5534 0 13.845
29.4407 0 -6.57692
20.7387 0 -16.8128
50.7436 0 -44.6399
-5.05562 0 4.2859
2.187 0 -9.78494
0.310109 0 7.71025
73.6802 0 46.933
-8.04225 0 4.54118
-69.0193 0 -69.5394
5.85297 0 30.7597
53.5068 0 31.303
-35.285 0 7.24305
28.5481 0 5.62584
2.17042 0 18.3283
-58.1476 0 -3.25038
93.9557 0 12.4779
-10.3628 0 -10.5582
-16.9546 0 139.604
-12.0211 0 63.2682
-32.8759 0 -21.8461
24.2672 0 32.6845
55.4815 0 -75.1696
7.45163 0 23.4314
-12.1547 0 -5.90415
3.92717 0 12.1277
-0.994783 0 -11.6122
-8.18551 0 -2.2698
-0.0525604 0 14.2564
0.297912 0 34.0048
6.97911 0 28.7809
24.6442 0 16.6178
9.83934 0 8.89085
31.5512 0 10.1066
-17.8852 0 52.5897
5.70321 0 -12.6156
-90.244 0 3.57253
10.3791 0 59.3334
5.86781 0 -8.24915
-4.28946 0 119.052
-0.529577 0 33.5067
-24.1086 0 -5.84298
8.87482 0 1.65919
21.7441 0 0.952084
-5.18955 0 12.9021
23.0037 0 -10.4726
-40.8401 0 50.9015
-45.347 0 -63.5165
-10.8487 0 26.6951
18.5723 0 -22.9071
13.4547 0 63.4218
15.4173 0 138.359
11.5105 0 -9.39695
-85.8053 0 10.2794
47.7167 0 -5.30942
3.15686 0 20.1696
-25.4293 0 7.18493
33.6472 0 7.35752
-52.8611 0 31.029
-6.22439 0 31.9231
68.3205 0 -68.8273
7.27434 0 4.7246
-73.7614 0 46.3939
0.100912 0 8.17645
-2.19268 0 -9.7487
24.7451 0 -42.5059
7.45319 0 7.34061
12.5708 0 1.12579
-7.71576 0 5.03572
15.4556 0 -35.2617
-12.2394 0 16.3619
-3.74166 0 -27.4586
-0.559217 0 4.32373
-17.1809 0 -6.35747
-9.82127 0 8.45718
-22.9373 0 -21.497
32.6664 0 -19.9357
16.9349 0 -36.6852
3.43652 0 0.353188
0.656073 0 -22.1363
-10.6847 0 12.0355
15.4709 0 -4.88046
13.2073 0 -57.5525
-12.8099 0 15.3948
-44.9437 0 -29.5796
1.75242 0 -36.1734
-56.0961 0 -15.5377
-5.14769 0 11.6846
42.6442 0 -44.5294
8.79278 0 -3.01238
6.86681 0 -0.613332
9.48597 0 -62.4528
-6.35584 0 3.66636
-18.9218 0 -17.8292
1.81772 0 5.94126
-113.175 0 86.6952
54.3796 0 -75.4594
3.23521 0 19.6045
-5.8802 0 -0.304649
8.77251 0 -9.23034
-8.3237 0 -2.47541
-15.6732 0 -3.9487
3.50853 0 6.70924
32.7315 0 6.25006
-23.32 0 -23.6643
35.9191 0 -23.2919
13.0298 0 16.9377
-13.9635 0 -82.3746
-15.8661 0 3.19324
14.5419 0 8.74903
-0.761326 0 -22.563
-3.27076 0 1.83659
-16.5439 0 -41.8361
-35.3867 0 -17.0138
21.3275 0 -20.2769
10.5165 0 11.1188
15.5815 0 -6.33063
0.290822 0 4.28383
4.0903 0 -27.9802
12.5417 0 15.8474
-15.0456 0 -35.2279
7.26809 0 5.23703
-12.5971 0 1.14098
-7.43366 0 7.33116
-24.5645 0 -42.0869
-44.4937 0 -28.8223
-12.9357 0 -13.3766
4.76345 0 9.4971
16.7803 0 0.222035
-38.6595 0 41.983
-28.28 0 -62.4973
27.0973 0 41.2836
27.4392 0 -32.9779
43.0382 0 -65.7517
-17.7705 0 13.3626
-38.0558 0 47.6858
-13.8633 0 -23.8805
46.8528 0 -6.22451
52.0923 0 -4.2522
-7.73653 0 27.0256
-12.8967 0 7.77183
-15.9216 0 5.28619
-17.2128 0 0.331984
-64.4602 0 -18.8805
55.9378 0 -20.2031
69.9645 0 28.9056
11.9977 0 32.9505
21.0773 0 -10.9549
-18.447 0 -39.8571
18.1753 0 -0.983468
-12.0048 0 -10.9559
-4.14205 0 7.9938
-10.2908 0 5.38656
-19.5131 0 -18.354
19.2279 0 -1.90279
-7.87438 0 5.22577
6.85693 0 -16.2304
5.59932 0 5.87831
3.1216 0 9.81223
9.07682 0 -12.4542
-14.7504 0 1.70647
21.7225 0 -43.6627
-5.15891 0 -10.9804
-7.12235 0 26.6791
-44.3704 0 26.6605
16.5913 0 2.2901
9.42721 0 -13.7918
20.3255 0 1.7835
12.9243 0 6.20077
12.3903 0 8.93465
8.53701 0 27.0422
-44.5539 0 -5.02471
-35.1223 0 -6.34137
5.20728 0 -24.227
35.8875 0 43.8098
17.2578 0 11.3158
-43.2284 0 -63.9037
-27.6907 0 -33.2474
-27.1332 0 41.4522
28.3224 0 -62.6568
38.8042 0 41.8509
-16.7711 0 0.251275
-4.60937 0 9.48468
12.9327 0 -13.3698
44.4264 0 -28.7298
-13.486 0 59.8701
62.4295 0 11.7393
-45.0609 0 9.86859
39.6286 0 -27.7617
-28.8835 0 -53.0409
6.14937 0 10.9414
-5.86145 0 11.6845
20.3901 0 45.4803
-47.8832 0 -19.4169
-3.77212 0 -1.42854
23.9539 0 -74.9139
-6.99313 0 -13.7184
-5.09732 0 -2.25362
-49.3602 0 37.8551
-24.1561 0 -0.92804
10.9732 0 -20.4593
-18.9289 0 -25.2434
-101.919 0 -42.7502
-45.7094 0 20.3128
3.84667 0 27.8394
0.228378 0 12.8448
52.7936 0 4.22058
-51.9072 0 28.7529
-49.5994 0 -2.64852
7.63686 0 -4.77202
-66.8744 0 -6.81074
-9.32297 0 -12.612
-6.90279 0 38.2473
-9.34817 0 -23.0675
-34.2265 0 0.94855
29.3739 0 -12.6667
48.6583 0 57.091
-6.9178 0 3.65294
10.952 0 -20.2963
68.62 0 6.04354
-6.34644 0 -6.46233
-20.5024 0 -8.28939
42.4888 0 -5.69495
-45.52 0 -41.9064
-4.02824 0 8.33891
-0.656774 0 20.9887
90.5371 0 20.8426
68.6481 0 -3.75384
27.4667 0 -30.8947
-10.7237 0 -20.3991
22.5554 0 0.795011
41.0613 0 42.3121
2.3249 0 -0.247155
4.3629 0 -27.7578
-22.3989 0 -73.3758
3.77703 0 -1.33414
47.7 0 -20.4306
-20.4916 0 45.7858
7.09827 0 12.2149
-6.07431 0 11.3201
27.9845 0 -51.9679
-39.6139 0 -28.1687
45.0001 0 10.0364
-62.3543 0 11.7188
13.2594 0 59.3359
-22.6996 0 -29.6115
12.2556 0 -5.1382
14.8923 0 -2.60945
-2.42696 0 31.9089
8.39895 0 -0.303423
62.0806 0 -13.3777
-23.9059 0 73.3108
33.9885 0 -11.5346
-1.03773 0 7.9247
5.69453 0 20.4848
-0.729401 0 61.2109
3.57771 0 0.0511752
-6.58036 0 14.3562
-13.9149 0 3.68339
11.5796 0 -6.86548
22.5581 0 -27.1744
-13.0792 0 12.8511
34.5016 0 -8.80149
-4.41341 0 -20.5676
61.8419 0 16.9725
-4.63004 0 -4.14373
-49.1275 0 -0.284814
-26.6913 0 27.9874
66.4465 0 21.1493
16.8696 0 24.8609
2.09927 0 31.0469
62.8476 0 22.2703
27.5571 0 27.8524
-1.76735 0 5.07823
-3.99804 0 -9.95214
-4.91059 0 -3.34456
1.60953 0 -0.913419
-1.76146 0 4.14582
-60.6328 0 18.8738
-15.8179 0 22.2129
2.60718 0 15.4764
-69.2831 0 28.8322
55.6917 0 43.37
56.9038 0 6.30406
1.90375 0 5.47357
-111.046 0 34.6808
-0.391647 0 -5.73545
-43.059 0 -18.222
18.7784 0 23.72
-59.5261 0 -66.1635
-13.1225 0 -5.51554
12.0565 0 0.110423
16.1884 0 30.4199
-4.72249 0 0.869864
0.898043 0 59.5441
-5.65942 0 20.627
2.1734 0 7.96471
-32.5309 0 -9.59395
21.0343 0 75.1342
-63.5016 0 -19.3767
-8.30986 0 -0.628398
2.88196 0 32.0443
-14.8077 0 -2.44105
-12.2475 0 -5.21602
22.0175 0 -28.8014
-56.7356 0 30.5008
104.184 0 5.50174
-62.8551 0 -81.9139
-5.18964 0 3.25229
-11.6173 0 3.04824
-44.4243 0 68.0659
13.1426 0 -69.249
2.06929 0 13.7328
-33.611 0 9.35534
-64.7256 0 -33.1568
-17.1964 0 28.059
12.8234 0 -39.0585
-7.73006 0 7.48006
-41.4382 0 -39.1026
9.98545 0 82.7587
4.90703 0 -22.674
4.63339 0 -18.1414
-39.1189 0 -50.168
23.9621 0 4.12092
5.14285 0 -2.45867
1.15967 0 6.35061
54.0315 0 10.5288
-29.2782 0 7.97187
28.467 0 -82.011
3.3425 0 20.1588
19.3959 0 10.1129
8.95835 0 -44.4781
0.448399 0 -9.28486
8.7049 0 4.60812
-6.4841 0 9.21331
-18.5112 0 -39.9603
25.0696 0 50.5017
-2.90338 0 -1.11436
-27.9551 0 1.80927
-9.36703 0 15.1729
20.407 0 9.73008
-38.4784 0 -50.57
25.5811 0 9.33319
-59.5509 0 9.75764
11.0427 0 -4.58412
-4.4788 0 -1.42958
-17.6401 0 -15.1683
30.6247 0 -36.1461
-2.39044 0 -21.5718
13.7625 0 6.33453
-42.3865 0 62.9746