# vtk DataFile Version 3.0
SiWiRVisFile
ASCII
DATASET UNSTRUCTURED_GRID
POINTS 1600 DOUBLE
76.7186 100 72.5903
77.0677 100 73.7399
78.1152 100 74.1587
79.9594 100 73.9961
80.9094 100 74.7238
81.8978 100 75.1989
83.787 100 74.9188
84.8496 100 75.3625
85.8934 100 75.6489
85.0271 100 74.2664
91.1581 100 73.5218
91.3528 100 72.0662
90.171 100 74.1243
89.6606 100 71.8964
88.7382 100 71.0517
91.3202 100 63.8028
92.4586 100 64.8959
94.6387 100 63.3008
91.5809 100 59.0656
96.2358 100 61.1682
103.797 100 45.71
105.707 100 47.5332
105.911 100 46.3847
106.79 100 46.9432
105.182 100 45.608
109.199 100 46.7027
110.138 100 41.2981
111.203 100 40.7426
110.532 100 42.368
111.687 100 41.8034
112.915 100 41.8218
113.97 100 42.2916
113.223 100 40.7547
114.287 100 41.2423
115.399 100 46.6329
119.309 100 45.6089
117.693 100 46.9394
118.579 100 46.3865
118.788 100 47.5347
120.695 100 45.7091
128.399 100 60.991
132.912 100 59.0656
129.75 100 63.1597
131.769 100 64.8977
133.137 100 63.939
135.796 100 71.0096
134.869 100 71.9256
134.313 100 74.0489
133.086 100 72.0171
133.307 100 73.6348
139.466 100 74.2593
138.598 100 75.6383
139.642 100 75.3583
140.703 100 74.9124
142.596 100 75.1933
143.587 100 74.7185
144.531 100 73.9979
146.377 100 74.1609
147.424 100 73.7411
147.774 100 72.5902
76.1436 100 74.5088
77.1989 100 74.8189
79.0192 100 74.7424
80.031 100 75.2969
81.0521 100 75.8247
82.9514 100 75.4955
83.9757 100 76.0634
85.0718 100 76.4431
86.1845 100 76.7322
87.2245 100 77.2595
88.266 100 77.1617
92.4622 100 71.6961
90.5164 100 72.7647
91.0555 100 69.3153
92.5681 100 66.1822
90.5103 100 71.1663
93.4189 100 63.9875
95.5355 100 62.0937
96.5721 100 62.7269
98.4482 100 62.7176
104.811 100 46.7465
98.4015 100 52.6816
106.026 100 54.4651
110.709 100 45.0773
106.686 100 45.7454
108.841 100 47.8559
109.765 100 45.6575
109.747 100 44.2732
108.227 100 40.7707
111.442 100 42.9607
113.049 100 42.92
116.299 100 40.7894
114.749 100 44.3372
114.769 100 45.6525
115.635 100 47.9412
117.804 100 45.7476
113.764 100 45.1168
118.547 100 54.1411
126.091 100 52.6816
119.678 100 46.7453
126.175 100 62.6252
127.841 100 62.5352
128.819 100 62.1075
131.197 100 63.8867
133.951 100 71.227
131.928 100 66.2491
133.33 100 69.3403
133.965 100 72.7127
131.952 100 71.5758
136.218 100 77.1008
137.252 100 77.241
138.306 100 76.7266
139.414 100 76.4394
140.52 100 76.064
141.54 100 75.4903
143.448 100 75.8106
144.462 100 75.2974
145.472 100 74.7419
147.294 100 74.82
148.349 100 74.5087
76.2158 100 75.5706
77.1651 100 76.1174
78.1518 100 75.4761
79.1427 100 75.9439
80.0942 100 76.3827
82.1969 100 76.3253
83.2161 100 76.7481
84.2603 100 77.1816
85.2733 100 77.4945
86.3268 100 77.8151
87.7182 100 78.154
88.8908 100 78.048
90.715 100 76.6172
91.5972 100 70.5307
92.5235 100 68.47
93.2119 100 67.2884
93.6768 100 64.9493
94.6437 100 64.4171
95.8828 100 63.4727
97.4283 100 61.5711
98.6613 100 61.5698
104.164 100 55.8558
105.561 100 55.4875
106.721 100 55.5771
104.002 100 51.7843
107.138 100 54.5688
106.873 100 53.4688
105.546 100 53.3017
110.356 100 43.4257
111.287 100 44.1686
113.19 100 44.137
114.123 100 43.4053
119.137 100 52.5906
117.297 100 53.1713
117.313 100 54.368
120.332 100 52.374
117.675 100 55.5342
118.905 100 55.361
120.877 100 56.177
125.907 100 61.5611
126.991 100 61.79
128.565 100 63.423
129.787 100 64.374
130.75 100 65.0475
131.294 100 67.1412
132.081 100 68.3756
132.954 100 70.5231
133.529 100 76.8696
135.55 100 78.03
136.798 100 78.146
138.171 100 77.796
139.227 100 77.4964
140.233 100 77.1807
141.278 100 76.7474
142.296 100 76.3183
144.398 100 76.3812
145.35 100 75.944
146.34 100 75.4739
147.328 100 76.1142
148.278 100 75.5701
76.2376 100 76.7266
77.294 100 77.2598
78.2318 100 76.604
79.2816 100 77.063
81.3204 100 77.0318
82.3333 100 77.4464
83.371 100 77.8587
84.4563 100 78.2204
85.5472 100 78.5458
86.7348 100 78.7986
88.1539 100 79.258
89.7584 100 78.5533
89.4921 100 77.008
92.7028 100 70.5936
92.1692 100 69.5364
93.6464 100 68.3696
94.6675 100 67.14
93.8614 100 66.0513
94.8834 100 65.5243
95.6827 100 64.6283
96.8053 100 64.0474
99.6688 100 62.2314
104.208 100 54.7481
105.267 100 58.3324
105.109 100 56.476
106.306 100 56.508
108.874 100 56.0833
110.307 100 56.2601
107.984 100 53.7088
111.669 100 45.7102
112.748 100 45.7122
116.233 100 53.8401
114.581 100 55.5243
115.545 100 56.4706
118.338 100 56.3756
119.545 100 56.2806
119.163 100 57.952
120.058 100 55.329
125.003 100 62.2602
127.703 100 64.1076
128.546 100 64.5701
129.511 100 65.4089
130.448 100 66.3875
130.043 100 67.3847
130.936 100 68.2878
132.183 100 69.4347
131.884 100 70.5058
134.931 100 76.9982
134.643 100 78.616
136.364 100 79.1991
137.729 100 78.7708
138.95 100 78.5529
140.055 100 78.2284
141.117 100 77.8789
142.163 100 77.44
143.176 100 77.0247
145.209 100 77.0656
146.261 100 76.602
147.199 100 77.2584
148.255 100 76.7256
76.3832 100 77.8553
77.491 100 78.4643
78.3062 100 77.869
80.3456 100 77.4478
81.4309 100 78.1291
82.4596 100 78.5391
83.5771 100 78.859
84.7451 100 79.4218
86.0654 100 79.6811
87.2745 100 79.9734
88.038 100 80.8004
90.5308 100 79.3569
90.9548 100 77.8914
94.396 100 69.2512
93.3977 100 69.6351
96.0031 100 67.9284
95.9963 100 66.8633
95.8594 100 65.8191
96.7239 100 65.2099
97.8379 100 64.5145
97.5919 100 63.4488
103.007 100 62.1547
105.977 100 57.5399
107.089 100 57.3228
107.767 100 56.3189
108.229 100 57.2092
109.376 100 57.0233
110.193 100 58.0572
108.1 100 55.276
111.322 100 47.8535
113.158 100 47.8099
116.469 100 55.1269
113.701 100 57.7588
115.008 100 57.4692
116.175 100 57.4438
116.774 100 56.1614
117.419 100 57.1863
117.988 100 58.1297
121.535 100 62.2319
126.884 100 63.349
126.614 100 64.3728
127.397 100 65.2768
128.506 100 65.5967
129.258 100 66.5178
128.639 100 68.0144
131.025 100 69.8199
130.019 100 69.3055
133.805 100 78.0448
133.633 100 79.1438
136.508 100 80.9706
137.132 100 80.0352
138.364 100 79.7
139.733 100 79.4191
140.928 100 78.8716
142.044 100 78.5256
143.069 100 78.1255
144.147 100 77.4464
146.186 100 77.8703
147.001 100 78.4655
148.111 100 77.8519
76.5999 100 78.9836
77.5793 100 79.5744
78.5354 100 78.9309
79.3707 100 78.1829
80.3959 100 78.4959
81.3928 100 79.2238
82.5085 100 79.6406
83.5646 100 80.1046
84.8167 100 80.4566
85.8281 100 80.8076
86.8611 100 80.9127
89.1913 100 79.6209
91.2874 100 80.6046
90.6185 100 75.229
91.5211 100 74.6495
94.842 100 68.1772
96.797 100 68.8933
96.9406 100 67.2933
97.0452 100 66.2243
98.7989 100 65.3485
98.7228 100 63.6664
101.123 100 63.302
103.763 100 60.6039
104.825 100 61.1341
106.419 100 58.5178
107.75 100 58.3581
107.959 100 59.4035
108.84 100 58.3206
111.554 100 58.1579
111.422 100 56.0649
113.523 100 55.9338
112.757 100 58.4011
114.981 100 58.5117
116.286 100 59.3372
116.885 100 58.3863
118.766 100 59.2934
119.57 100 60.0511
120.833 100 61.2611
123.465 100 63.2165
125.662 100 63.6084
125.975 100 65.4959
127.778 100 66.3717
127.254 100 67.7586
127.667 100 68.8195
129.591 100 68.3242
132.789 100 74.6632
133.946 100 74.9576
133.167 100 80.4863
135.366 100 79.6217
137.624 100 80.9448
138.696 100 80.8029
139.717 100 80.4643
140.973 100 80.1667
142.003 100 79.6493
143.101 100 79.2184
144.091 100 78.4979
145.126 100 78.1796
145.955 100 78.9333
146.893 100 79.5721
147.887 100 78.9875
75.7309 100 79.6273
76.6485 100 80.1061
78.5771 100 80.109
79.4279 100 79.4756
80.5833 100 80.0414
80.6721 100 81.8171
82.3862 100 80.6701
84.0901 100 81.2665
85.1923 100 81.6735
86.1771 100 81.8457
87.2349 100 81.8995
90.0852 100 80.3429
91.6358 100 81.6375
91.6212 100 75.8545
95.4141 100 69.9692
95.6071 100 68.8964
97.4059 100 69.8444
98.6025 100 67.6779
98.2089 100 66.5306
99.6198 100 64.4389
99.9638 100 63.3605
102.171 100 62.9213
104.14 100 61.9677
106.878 100 59.5454
108.935 100 60.0464
109.714 100 59.183
109.547 100 62.3071
110.794 100 59.168
108.738 100 63.3604
109.974 100 64.1372
114.429 100 63.2156
115.471 100 62.6098
113.932 100 58.9735
114.531 100 61.758
114.867 100 59.5855
115.804 100 60.3467
117.719 100 59.4384
120.117 100 62.2723
122.302 100 62.9542
124.596 100 63.3393
125.115 100 64.6255
126.579 100 66.4538
126.2 100 67.5974
127.085 100 69.8235
128.735 100 69.1418
129.161 100 70.2444
133.092 100 75.8533
132.344 100 81.6245
134.325 100 80.241
137.225 100 81.8725
138.303 100 81.8138
139.317 100 81.6193
140.416 100 81.2989
142.05 100 80.7336
143.783 100 81.8317
143.904 100 80.045
145.066 100 79.4848
145.919 100 80.1146
147.837 100 80.1068
148.738 100 79.6434
75.5043 100 80.8354
76.5379 100 81.128
77.6661 100 80.7397
78.5531 100 81.3121
79.5116 100 80.624
79.5415 100 81.7656
82.0627 100 81.6908
83.1797 100 82.0517
84.345 100 82.3565
85.4974 100 82.6271
86.6546 100 82.9409
87.8381 100 82.7572
89.1294 100 80.9493
88.5181 100 81.8067
89.1735 100 82.6909
92.3235 100 80.2804
96.6549 100 70.6378
98.0353 100 68.7354
100.25 100 67.5969
99.3252 100 66.7719
99.848 100 65.5107
100.897 100 64.6801
103.762 100 63.1452
106.253 100 60.6672
107.64 100 60.4648
109.21 100 61.3086
108.12 100 61.5853
106.735 100 64.1
107.825 100 63.9146
109.957 100 65.7515
115.009 100 65.4755
117.002 100 63.866
118.13 100 64.3289
115.63 100 61.5375
114.781 100 60.6648
117.018 100 60.4543
118.502 100 60.3828
120.943 100 63.0788
123.532 100 64.5854
124.408 100 65.3479
125.48 100 66.5633
124.98 100 67.6638
126.41 100 68.8078
127.956 100 70.4281
132.097 100 80.5357
135.249 100 82.6298
135.955 100 81.8711
135.318 100 80.9539
136.709 100 82.8108
137.891 100 82.8634
139.018 100 82.6093
140.158 100 82.3781
141.293 100 82.0763
142.562 100 81.6602
144.951 100 81.7607
144.981 100 80.6263
145.942 100 81.3042
146.847 100 80.7332
147.962 100 81.1356
148.994 100 80.8367
75.5725 100 82.0172
76.6387 100 82.2739
77.6712 100 81.9184
79.0666 100 82.8371
79.6865 100 83.7525
79.1329 100 84.7442
80.2313 100 82.7454
81.7903 100 82.8145
83.1389 100 83.2748
82.1592 100 83.9404
84.4285 100 83.4896
85.9705 100 83.7448
87.3091 100 83.8911
88.559 100 83.6145
90.236 100 83.2429
91.8289 100 79.3857
97.5296 100 72.1087
97.6505 100 71.0496
99.5393 100 68.3834
100.613 100 68.5992
102.077 100 65.365
[...]
POINT_DATA 1600
SCALARS mass double
LOOKUP_TABLE default
1
1
1
1
1
1
1
1
1
1
1
1
1
1
1
1
1
1
1
1
1
1
1
1
1
1
1
1
1
1
1
1
1
1
1
1
1
1
1
1
1
1
1
1
1
1
1
1
1
1
1
1
1
1
1
1
1
1
1
1
1
1
1
1
1
1
1
1
1
1
1
1
1
1
1
1
1
1
1
1
1
1
1
1
1
1
1
1
1
1
1
1
1
1
1
1
1
1
1
1
1
1
1
1
1
1
1
1
1
1
1
1
1
1
1
1
1
1
1
1
1
1
1
1
1
1
1
1
1
1
1
1
1
1
1
1
1
1
1
1
1
1
1
1
1
1
1
1
1
1
1
1
1
1
1
1
1
1
1
1
1
1
1
1
1
1
1
1
1
1
1
1
1
1
1
1
1
1
1
1
1
1
1
1
1
1
1
1
1
1
1
1
1
1
1
1
1
1
1
1
1
1
1
1
1
1
1
1
1
1
1
1
1
1
1
1
1
1
1
1
1
1
1
1
1
1
1
1
1
1
1
1
1
1
1
1
1
1
1
1
1
1
1
1
1
1
1
1
1
1
1
1
1
1
1
1
1
1
1
1
1
1
1
1
1
1
1
1
1
1
1
1
1
1
1
1
1
1
1
1
1
1
1
1
1
1
1
1
1
1
1
1
1
1
1
1
1
1
1
1
1
1
1
1
1
1
1
1
1
1
1
1
1
1
1
1
1
1
1
1
1
1
1
1
1
1
1
1
1
1
1
1
1
1
1
1
1
1
1
1
1
1
1
1
1
1
1
1
1
1
1
1
1
1
1
1
1
1
1
1
1
1
1
1
1
1
1
1
1
1
1
1
1
1
1
1
1
1
1
1
1
1
1
1
1
1
1
1
1
1
1
1
1
1
1
1
1
1
1
1
1
1
1
1
1
1
1
1
1
1
1
1
1
1
1
1
1
1
1
1
1
1
1
1
1
1
1
1
1
1
1
1
1
1
1
1
1
1
1
1
1
1
1
1
1
1
1
1
1
1
1
1
1
1
1
1
1
1
1
1
1
1
1
1
1
1
1
1
1
1
1
1
1
1
1
1
1
1
1
1
1
1
1
1
1
1
1
1
1
1
1
1
1
1
1
1
1
1
1
1
1
1
1
1
1
1
1
1
1
1
1
1
1
1
1
1
1
1
1
1
1
1
1
1
1
1
1
1
1
1
1
1
1
1
1
1
1
1
1
1
1
1
1
1
1
1
1
1
1
1
1
1
1
1
1
1
1
1
1
1
1
1
1
1
1
1
1
1
1
1
1
1
1
1
1
1
1
1
1
1
1
1
1
1
1
1
1
1
1
1
1
1
1
1
1
1
1
1
1
1
1
1
1
1
1
1
1
1
1
1
1
1
1
1
1
1
1
1
1
1
1
1
1
1
1
1
1
1
1
1
1
1
1
1
1
1
1
1
1
1
1
1
1
1
1
1
1
1
1
1
1
1
1
1
1
1
1
1
1
1
1
1
1
1
1
1
1
1
1
1
1
1
1
1
1
1
1
1
1
1
1
1
1
1
1
1
1
1
1
1
1
1
1
1
1
1
1
1
1
1
1
1
1
1
1
1
1
1
1
1
1
1
1
1
1
1
1
1
1
1
1
1
1
1
1
1
1
1
1
1
1
1
1
1
1
1
1
1
1
1
1
1
1
1
1
1
1
1
1
1
1
1
1
1
1
1
1
1
1
1
1
1
1
1
1
1
1
1
1
1
1
1
1
1
1
1
1
1
1
1
1
1
1
1
1
1
1
1
1
1
1
1
1
1
1
1
1
1
1
1
1
1
1
1
1
1
1
1
1
1
1
1
1
1
1
1
1
1
1
1
1
1
1
1
1
1
1
1
1
1
1
1
1
1
1
1
1
1
1
1
1
1
1
1
1
1
1
1
1
1
1
1
1
1
1
1
1
1
1
1
1
1
1
1
1
1
1
1
1
1
1
1
1
1
1
1
1
1
1
1
1
1
1
1
1
1
1
1
1
1
1
1
1
1
1
1
1
1
1
1
1
1
1
1
1
1
1
1
1
1
1
1
1
1
1
1
1
1
1
1
1
1
1
1
1
1
1
1
1
1
1
1
1
1
1
1
1
1
1
1
1
1
1
1
1
1
1
1
1
1
1
1
1
1
1
1
1
1
1
1
1
1
1
1
1
1
1
1
1
1
1
1
1
1
1
1
1
1
1
1
1
1
1
1
1
1
1
1
1
1
1
1
1
1
1
1
1
1
1
1
1
1
1
1
1
1
1
1
1
1
1
1
1
1
1
1
1
1
1
1
1
1
1
1
1
1
1
1
1
1
1
1
1
1
1
1
1
1
1
1
1
1
1
1
1
1
1
1
1
1
1
1
1
1
1
1
1
1
1
1
1
1
1
1
1
1
1
1
1
1
1
1
1
1
1
1
1
1
1
1
1
1
1
1
1
1
1
1
1
1
1
1
1
1
1
1
1
1
1
1
1
1
1
1
1
1
1
1
1
1
1
1
1
1
1
1
1
1
1
1
1
1
1
1
1
1
1
1
1
1
1
1
1
1
1
1
1
1
1
1
1
1
1
1
1
1
1
1
1
1
1
1
1
1
1
1
1
1
1
1
1
1
1
1
1
1
1
1
1
1
1
1
1
1
1
1
1
1
1
1
1
1
1
1
1
1
1
1
1
1
1
1
1
1
1
1
1
1
1
1
1
1
1
1
1
1
1
1
1
1
1
1
1
1
1
1
1
1
1
1
1
1
1
1
1
1
1
1
1
1
1
1
1
1
1
1
1
1
1
1
1
1
1
1
1
1
1
1
1
1
1
1
1
1
1
1
1
1
1
1
1
1
1
1
1
1
1
1
1
1
1
1
1
1
1
1
1
1
1
1
1
1
1
1
1
1
1
1
1
1
1
1
1
1
1
1
1
1
1
1
1
1
1
1
1
1
1
1
1
1
1
1
1
1
1
1
1
1
1
1
1
1
1
1
1
1
1
1
1
1
1
1
1
1
1
1
1
1
1
1
1
1
1
1
1
1
1
1
1
1
1
1
1
1
1
1
1
1
1
1
1
1
1
1
1
1
1
1
1
1
1
1
1
1
1
1
1
1
1
1
1
1
1
1
1
1
1
1
1
1
1
1
1
1
1
1
1
1
1
1
1
1
1
1
1
1
1
1
1
1
1
1
1
1
1
1
1
1
1
1
1
1
1
1
1
1
1
1
1
1
1
1
1
1
1
1
1
1
1
1
1
1
1
1
1
1
1
1
1
1
1
1
1
1
1
1
1
1
1
1
1
1
1
1
1
1
1
1
1
1
1
1
1
1
1
1
1
1
1
1
1
1
1
1
1
1
1
1
1
1
1
1
1
1
1
1
1
1
1
1
1
1
1
1
1
1
1
1
1
1
1
1
1
1
1
1
1
1
1
1
1
1
1
1
1
1
1
1
1
1
1
1
1
1
1
1
1
1
1
1
1
1
1
1
1
1
1
1
1
1
1
1
1
1
1
1
1
1
1
1
1
1
1
1
1
1
1
1
1
1
1
1
1
1
1
1
1
1
1
1
1
1
1
1
1
1
1
1
1
1
1
1
1
1
1
1
1
1
1
1
VECTORS force double
3.48471 0 12.3539
-11.6051 0 -15.17
-19.5536 0 1.27332
-0.792873 0 26.5022
16.9756 0 -35.4529
32.4547 0 -12.2509
86.7962 0 -41.5842
-24.6629 0 -6.95396
9.32821 0 7.00484
-5.45309 0 4.26418
86.7277 0 113.656
7.69288 0 -18.5691
18.947 0 0.370437
2.20748 0 1.46601
10.9928 0 8.36111
3.72352 0 3.02286
19.0647 0 2.61198
10.239 0 2.8342
0 0 0
7.66652 0 14.2239
13.9393 0 4.48228
4.12387 0 -22.6036
-118.504 0 74.1058
31.4098 0 21.9879
-25.2591 0 -7.98225
1.9111 0 1.32497
14.1987 0 0.815727
-5.59834 0 15.6023
1.4524 0 -40.5211
-4.63623 0 7.66943
-3.14445 0 0.118817
-8.87074 0 4.59473
8.02364 0 3.77414
-10.4423 0 -9.76299
-2.68765 0 2.79502
24.2915 0 -7.10707
-28.3465 0 19.8379
116.243 0 75.3831
-4.34837 0 -22.5955
-13.9124 0 4.45347
-0.544298 0 15.1915
0 0 0
-15.1136 0 11.5503
63.7127 0 -7.7997
-3.56676 0 1.68933
-9.39287 0 7.98636
-8.19075 0 -3.96357
72.411 0 -164.667
-3.18665 0 -13.6799
-11.4825 0 0.436262
5.61208 0 5.2369
-10.1728 0 8.38667
26.1043 0 -6.22254
-85.3743 0 -39.9808
-32.64 0 -12.2232
-17.807 0 -38.2546
1.20551 0 26.1785
19.5951 0 1.33879
11.7867 0 -15.456
-3.5024 0 12.4107
1.15581 0 -37.8494
9.19699 0 39.0955
30.0144 0 23.2775
-31.7602 0 -4.54325
-20.7318 0 41.6014
-52.8716 0 70.5811
55.8511 0 -51.5657
3.97396 0 -25.8915
-9.37453 0 -0.610098
-61.4658 0 -82.6798
46.2578 0 -14.4935
-13.4662 0 -4.89678
-108.99 0 -101.459
10.3431 0 10.3323
18.8856 0 -4.42181
18.7182 0 5.12527
-23.3936 0 -117.301
14.3053 0 12.3031
66.372 0 -62.6309
-33.2821 0 -156.865
14.9051 0 -10.8449
0 0 0
5.83786 0 -8.60816
-10.9916 0 7.57427
80.0034 0 -59.0022
3.30818 0 -11.2802
-7.43889 0 2.36683
-13.4495 0 55.1746
0.928888 0 0.256291
8.4065 0 12.9625
3.88406 0 20.8658
-0.716469 0 0.161221
-14.2318 0 17.264
-0.46581 0 -6.14393
-1.80905 0 -10.6478
-80.1336 0 -59.2377
3.17489 0 -5.62718
-12.0254 0 12.2691
0 0 0
-14.4476 0 -10.6211
-65.1712 0 -68.3469
-33.7475 0 23.4221
22.1432 0 -3.87152
-8.47259 0 18.7574
-11.0713 0 8.5414
-3.68957 0 -18.5264
-14.4663 0 11.2189
8.67616 0 -1.90175
17.9418 0 21.2919
-56.5756 0 7.54389
81.9006 0 -89.1989
9.33686 0 -8.85688
-0.429865 0 -23.177
-60.3064 0 -55.2699
52.7804 0 69.2117
18.3677 0 45.7544
33.426 0 -6.70904
-30.3437 0 23.2017
-9.31903 0 39.4103
-0.959944 0 -38.2471
5.55041 0 24.2568
30.1853 0 -3.85665
-20.2747 0 -12.5929
-38.9482 0 -18.3646
66.7873 0 6.7321
-18.5721 0 -11.3424
-51.4447 0 44.1956
-46.5357 0 -45.2882
40.3385 0 3.07576
-9.41141 0 -9.36509
37.4417 0 79.62
-94.5321 0 -41.681
-1.81238 0 -0.168211
-12.652 0 1.1804
8.57851 0 -0.156532
4.74381 0 -1.4028
25.008 0 132.746
-31.9079 0 -8.84755
-87.6937 0 61.5349
-0.928318 0 7.89536
-4.47635 0 16.1632
9.20687 0 3.84261
11.9146 0 -3.97205
32.3879 0 -66.5877
0.376883 0 0.370471
20.5545 0 -12.4181
-13.1132 0 11.4345
14.448 0 13.6928
42.8765 0 -12.0656
1.45663 0 -31.5403
10.2898 0 -12.0811
-17.6545 0 3.16711
9.18436 0 1.21409
-5.71194 0 20.3029
3.59568 0 -2.10288
-11.4039 0 2.06739
-8.54261 0 -40.4555
-14.08 0 -3.5422
-17.6029 0 -6.23097
-10.3465 0 -4.75954
3.96737 0 12.4465
15.8843 0 -11.7679
2.22259 0 -30.224
-81.4766 0 7.93562
-20.7014 0 24.573
-10.8198 0 -30.8539
26.9077 0 -2.04602
12.6998 0 17.3277
27.2883 0 -12.9519
-53.8746 0 77.3341
2.38043 0 2.82061
-40.5462 0 8.77261
49.8641 0 -43.166
53.0804 0 51.0188
18.3875 0 -10.6157
-66.1913 0 8.86901
38.7068 0 -17.8492
20.6829 0 -12.5659
-30.5175 0 -3.25342
-5.1076 0 24.33
7.97003 0 3.28039
17.6623 0 -3.96706
-5.6187 0 10.732
-36.6764 0 26.2653
10.3437 0 -38.3816
6.32081 0 -5.11609
-13.6813 0 -72.4266
11.6503 0 43.167
-10.6388 0 49.9189
20.7877 0 23.5336
-14.0485 0 -14.6377
93.9558 0 57.1224
-3.78134 0 13.053
4.93097 0 -16.1229
11.9117 0 13.52
11.9566 0 5.18235
-5.95474 0 -47.1545
-2.76507 0 12.246
-83.9896 0 -32.1972
46.129 0 14.7609
-116.618 0 103.391
-17.8267 0 9.67797
7.27502 0 -2.13376
-9.52644 0 21.3985
10.9799 0 18.8657
-38.1038 0 50.8747
-14.1187 0 -11.8837
-13.9105 0 8.04495
-12.1399 0 12.2369
-25.7372 0 -7.59149
28.2442 0 -8.29857
22.565 0 10.208
5.971 0 8.98034
9.34768 0 -2.66378
17.4874 0 20.7066
-11.2068 0 18.2059
-14.7538 0 5.83581
6.38122 0 -8.52763
15.1834 0 13.1639
-216.602 0 -101.113
225.662 0 50.9875
77.1531 0 8.76626
0.0615468 0 -32.3711
23.2202 0 -24.0613
-13.7559 0 -5.70232
2.11524 0 36.1783
-18.3238 0 -16.2312
4.89353 0 16.1275
64.8396 0 73.3214
20.1895 0 -14.5393
-7.96533 0 26.8686
3.22424 0 36.3359
-23.915 0 36.5226
24.1115 0 -102.688
-9.42192 0 -6.05387
-11.6467 0 -38.2545
36.8858 0 22.4806
5.73859 0 11.2011
-17.6962 0 -4.06624
-8.1923 0 2.56621
1.87041 0 15.6968
-32.1562 0 9.97275
73.0338 0 -97.5516
-31.0229 0 -9.2943
-2.06208 0 -15.7177
6.32355 0 7.99653
-1.38612 0 104.14
-7.16581 0 -72.9276
-8.54742 0 7.76101
14.0385 0 -77.8502
-22.3476 0 -1.10661
15.5462 0 -10.7188
-8.92648 0 -0.432899
42.0889 0 -19.6141
-42.7661 0 -0.564451
13.3578 0 -6.68353
-47.3754 0 -18.5021
53.043 0 -0.95398
18.8936 0 -66.3562
9.1529 0 14.9312
111.075 0 -107.507
12.6169 0 8.85742
4.17105 0 -35.3331
9.80162 0 5.6822
-74.0298 0 -86.2124
60.0632 0 110.171
15.0719 0 34.3281
-5.85365 0 13.0046
-15.1865 0 -18.0208
1.27303 0 -0.666897
-1.51833 0 -0.516788
4.26419 0 -24.2965
13.8779 0 13.6573
0.994282 0 -49.2002
6.42789 0 -4.38971
-6.28537 0 43.072
-16.0665 0 -14.1946
12.9939 0 20.2324
-7.10534 0 -84.7062
72.7559 0 24.2391
-20.8215 0 43.4185
1.95066 0 -9.15282
-58.148 0 64.7348
4.23975 0 -3.3461
-122.068 0 -33.3289
3.28071 0 -15.6576
-1.7466 0 21.7177
-75.0293 0 -67.4736
48.2447 0 4.61339
10.0356 0 -26.7699
-16.2863 0 -63.6164
3.11336 0 4.15011
4.51942 0 -63.0413
1.32155 0 122.567
-8.79322 0 21.2027
-0.198529 0 -21.1184
31.271 0 -4.74903
-72.2212 0 -97.9765
29.424 0 7.92782
-2.35648 0 17.3614
-35.4337 0 18.6114
24.8877 0 -5.17662
-46.5722 0 1.5821
-9.23627 0 -2.80133
19.6276 0 67.0594
6.1502 0 4.62149
11.0129 0 -58.6285
7.20542 0 -1.13436
-11.6398 0 43.4773
-19.6251 0 -30.9862
14.6549 0 37.349
22.3945 0 3.52338
-28.971 0 -25.4476
-14.1147 0 14.9151
10.1482 0 -13.1809
-27.571 0 17.2951
-7.03794 0 -9.9686
53.2044 0 47.6963
1.30794 0 9.74976
-36.2471 0 -9.66635
46.8435 0 156.113
-13.5881 0 9.44931
10.8241 0 14.7288
-10.9269 0 -41.8106
18.1102 0 11.1825
-33.0882 0 -41.9218
31.6805 0 18.8833
20.8073 0 -3.34955
-5.39579 0 10.2777
-2.15447 0 1.45057
3.52277 0 1.10663
2.34855 0 0.1709
-1.27317 0 31.092
2.1814 0 4.98737
5.66417 0 -9.616
26.8587 0 -23.2345
2.88219 0 13.7637
-5.34401 0 19.4966
-4.23708 0 7.05071
21.4223 0 12.4739
-1.41644 0 -9.59034
-30.1197 0 21.5984
30.4318 0 6.20235
-9.21922 0 -1.98078
82.3502 0 64.7891
19.5648 0 7.26288
-86.9306 0 163.343
27.6508 0 -10.6866
-29.9262 0 9.75802
53.2148 0 -45.6756
-43.3207 0 -73.1354
14.1829 0 36.9507
-6.11014 0 1.12298
-5.06304 0 -24.0479
-4.83761 0 5.15144
-8.91762 0 62.883
0.566474 0 1.02202
43.8601 0 -0.840579
-9.2588 0 -2.69145
34.4968 0 16.6921
-64.5104 0 -4.22488
43.3924 0 -18.9943
-49.2094 0 3.51162
80.1729 0 -1.78458
-15.88 0 -6.3173
36.7699 0 -61.9941
11.695 0 30.272
-13.2884 0 8.40702
-167.214 0 -137.197
135.028 0 -10.7952
31.091 0 1.25572
-1.94961 0 14.3336
6.72736 0 6.11571
-17.705 0 -9.82999
-3.28799 0 5.84985
14.7428 0 61.2959
19.1621 0 -8.37929
3.28172 0 -2.0065
-3.12215 0 1.66852
-7.16678 0 -8.91451
-7.93367 0 -1.20878
8.25975 0 -1.75429
-7.95568 0 27.7759
-7.61252 0 14.5729
-10.0719 0 2.1672
-29.898 0 -13.3521
2.29338 0 44.1328
19.0122 0 -20.3219
34.8086 0 -10.0419
-7.52724 0 4.45455
12.4503 0 -11.423
-19.6508 0 15.7732
-6.41406 0 -19.3904
8.78741 0 13.5219
16.8565 0 8.23486
23.1797 0 -1.32116
-44.2384 0 6.35411
8.34337 0 -7.99497
28.8177 0 30.064
-5.50389 0 1.74599
77.8829 0 -75.8672
18.8316 0 6.42647
-41.1083 0 -10.3332
-37.7803 0 -30.031
19.0271 0 6.56599
-7.23524 0 -18.3622
4.01345 0 -25.1558
-1.30857 0 -7.58295
3.10035 0 -10.1795
-54.6152 0 74.4543
-60.9707 0 12.9168
130.691 0 -22.1704
16.0492 0 2.08512
-28.8004 0 -16.6443
-49.134 0 -81.6524
15.6981 0 -6.51159
-79.2472 0 -2.43275
45.6698 0 7.12687
-78.5797 0 3.21373
97.962 0 -16.243
-7.85978 0 -11.7657
24.4111 0 86.4583
-54.2461 0 -18.879
46.6682 0 -14.2403
25.5051 0 12.9084
15.6729 0 17.7444
-7.54107 0 34.298
6.62353 0 3.73663
-13.6015 0 15.1086
-3.37768 0 169.903
28.581 0 -46.963
22.3952 0 38.8533
31.1748 0 -41.6029
-44.1907 0 36.4147
5.74941 0 7.92381
67.6386 0 62.5371
-31.5014 0 -4.00771
-4.14383 0 5.38598
10.8304 0 -58.9711
2.62122 0 2.58582
44.0499 0 19.9432
-10.2703 0 6.29601
-4.68246 0 -38.9026
-25.2675 0 -32.0089
12.5872 0 -15.3078
-17.6169 0 -48.2574
8.72612 0 -8.71248
-1.94945 0 10.8387
-10.8676 0 15.7553
13.3572 0 -8.672
8.3399 0 8.04255
0.0471586 0 20.6266
-10.2827 0 -2.48629
-2.43734 0 -36.9435
-15.3908 0 30.2224
1.44483 0 -12.6649
-3.21872 0 -9.46675
-43.3802 0 52.9432
3.494 0 2.18792
-75.077 0 71.8596
-1.83591 0 8.9943
9.78126 0 7.64326
8.14012 0 -1.58962
28.1592 0 13.7014
-32.0609 0 -13.9893
-52.1773 0 32.5106
41.9851 0 0.333971
1.56497 0 -16.4384
2.27177 0 10.9268
-22.218 0 -16.2232
2.78394 0 90.5386
1.08083 0 8.01266
-0.103169 0 4.31881
18.5696 0 43.6455
-18.2144 0 17.0375
-24.4462 0 11.2997
-38.1346 0 -18.4558
40.5117 0 -11.7761
-23.7663 0 72.1001
7.65175 0 -11.473
4.15116 0 -8.82484
-0.739554 0 0.0852787
-15.393 0 5.29802
-3.65906 0 -8.71346
8.10663 0 7.60021
5.13329 0 -3.66462
-35.153 0 68.3224
0.38168 0 7.82799
-58.4954 0 -154.992
5.33779 0 -3.89822
-8.53876 0 -27.7418
-23.2474 0 26.1508
-20.2706 0 -46.1849
-10.6974 0 18.1597
-14.41 0 3.35904
-39.0258 0 -67.3779
-53.2925 0 -24.7305
30.9687 0 -25.0004
-45.1771 0 18.2803
35.8578 0 26.0512
-11.9972 0 -2.7337
16.6543 0 5.1116
-20.7926 0 -5.18184
11.0445 0 24.7634
-74.0785 0 10.0741
6.76459 0 44.3268
11.8565 0 -0.153289
2.47839 0 17.3661
-9.13341 0 5.00821
-5.64244 0 -26.3769
13.5406 0 11.6869
-30.1956 0 22.536
16.1307 0 -40.5805
10.07 0 -4.73276
-2.41718 0 2.10389
-115.592 0 -3.289
-2.20875 0 -9.62236
14.5334 0 4.41447
-5.24198 0 -16.2653
16.9612 0 1.70737
53.2299 0 -22.5505
5.76528 0 -4.53278
-4.04236 0 2.86451
-1.10509 0 -18.444
-55.6332 0 20.0825
15.5023 0 7.03962
0.597147 0 35.8089
-6.27869 0 -38.4842
10.2424 0 18.3796
7.70986 0 -25.7759
7.62505 0 -63.272
62.2761 0 -165.54
-2.51445 0 8.57048
46.8108 0 80.5068
-4.90148 0 -4.27872
-21.1677 0 40.3547
20.8457 0 -32.703
16.0799 0 5.30402
0.742272 0 -0.522918
-6.67447 0 -8.39001
2.68098 0 -14.4905
4.20466 0 7.1697
5.98369 0 -12.1796
3.7156 0 16.0103
13.4933 0 -4.10671
-4.58408 0 -1.11392
-13.7563 0 3.93746
-6.552 0 5.35966
-7.27886 0 -3.28364
-24.0008 0 -59.7352
44.5053 0 152.351
-25.5575 0 -16.7816
4.25 0 3.09588
16.7619 0 44.1869
-75.1093 0 -1.84403
-3.33873 0 -51.3418
-5.64866 0 20.5656
-3.61814 0 17.3938
-3.72173 0 0.423185
17.6782 0 -35.7718
-12.5586 0 17.6771
-3.65905 0 -10.5857
-8.07351 0 -10.9146
1.73711 0 12.8811
-24.0208 0 -14.1359
33.3229 0 -39.9343
9.08423 0 11.2351
-6.54085 0 -9.24146
-1.10838 0 -14.1039
27.1631 0 17.5112
-14.5008 0 0.931072
6.5631 0 -21.2834
-20.6298 0 -56.0483
27.9798 0 81.316
-15.8756 0 7.90164
-4.53103 0 5.0037
104.942 0 15.337
0.284037 0 -10.9068
-48.6432 0 20.7371
16.2955 0 7.69977
12.8545 0 -7.25902
3.85559 0 2.85093
1.6338 0 16.2033
-4.34378 0 14.6948
-7.43465 0 27.1603
-34.0258 0 -4.58111
29.2571 0 20.4365
16.0931 0 18.5154
12.8096 0 -40.1869
-21.7014 0 148.28
-70.6745 0 40.8603
8.41361 0 -4.65616
54.738 0 20.4869
27.7565 0 -3.48402
0.944243 0 -2.40499
-10.6918 0 -5.56988
-28.5781 0 -0.728637
-3.73769 0 -17.463
-4.73914 0 10.989
-2.20016 0 -12.9122
22.653 0 -32.2561
9.41925 0 -12.0459
3.16814 0 -7.77676
-9.14408 0 1.60731
18.8968 0 -4.87804
-3.69268 0 3.9432
6.05176 0 -1.35198
0.383261 0 9.98862
-48.6718 0 2.17702
34.2405 0 70.4101
15.317 0 14.7062
40.5422 0 47.7395
-51.0941 0 -41.6603
-5.47731 0 12.0309
7.45009 0 0.327232
80.0322 0 -23.7351
-13.0131 0 9.08296
-11.1307 0 -26.5138
-15.1052 0 10.179
51.2409 0 77.673
17.8252 0 -18.4576
-7.32387 0 11.5975
4.73576 0 -48.6168
-7.04208 0 12.3667
-22.9819 0 0.0415856
16.5347 0 -18.6838
-60.263 0 -27.3727
15.6965 0 10.7621
-69.3744 0 2.57577
-5.40527 0 7.16693
-6.73028 0 -4.83786
26.3313 0 5.84104
-15.1249 0 -1.2772
43.7439 0 -1.03986
-9.87859 0 -18.9131
66.6418 0 -7.17246
7.47845 0 7.93952
-8.17847 0 -11.7747
-3.7726 0 4.50777
-0.154941 0 19.3669
-14.4495 0 -17.5936
28.7772 0 -10.689
62.9756 0 -1.16412
-1.25337 0 -14.4585
-3.26067 0 -21.1492
4.15583 0 28.4263
1.81344 0 -2.03027
-4.13188 0 3.90078
-68.613 0 43.7836
16.9809 0 49.1211
-8.29447 0 18.1463
42.3972 0 -7.13753
12.0097 0 19.8364
-23.2204 0 -17.716
-0.893951 0 5.33939
-7.78191 0 -7.34347
36.0139 0 21.0186
-5.99969 0 -10.8838
-11.5989 0 2.42025
-1.02037 0 -50.3476
9.77162 0 11.2307
-3.28721 0 17.3047
8.40811 0 29.7343
42.1095 0 -23.5265
-3.99142 0 3.67057
-37.9633 0 -12.2557
72.4149 0 -67.669
-4.42701 0 -8.21003
-29.3795 0 -19.7823
-16.258 0 -34.0371
8.75469 0 -8.1875
-5.37889 0 -15.5536
0.22056 0 -9.23022
38.8232 0 61.0585
11.8327 0 -1.88946
3.96349 0 -57.6657
-20.6407 0 8.67128
19.0304 0 15.5938
9.85331 0 -11.1863
14.5426 0 -11.543
-22.7716 0 20.3826
-22.2295 0 -44.4127
9.52996 0 45.0231
-7.65208 0 24.6637
-20.2912 0 -9.00965
33.3556 0 56.6505
-44.9464 0 1.61265
-14.2686 0 -16.0953
82.5486 0 -25.0873
-0.0841592 0 11.3862
-7.77693 0 -8.37227
-31.2827 0 -6.67911
15.801 0 8.18242
-16.0688 0 0.926854
12.8793 0 13.2517
1.09697 0 -6.33609
22.2052 0 32.0848
-6.77244 0 -14.6662
20.1227 0 24.2858
-26.8703 0 8.7734
74.7176 0 -18.69
-16.2177 0 -6.39334
6.06929 0 -9.32277
22.2934 0 10.2777
-4.98552 0 -25.7222
87.5709 0 -71.5763
24.7203 0 -15.193
0.0205171 0 -13.1746
-5.41129 0 -10.9128
16.213 0 0.587801
-43.4534 0 -16.8716
34.0385 0 -37.3417
12.7805 0 -15.4994
-36.8598 0 -23.3288
34.2398 0 10.9876
6.96566 0 5.63678
-35.2284 0 -26.0415
-3.21593 0 30.3487
-8.9716 0 1.95839
-3.69245 0 13.1035
-12.3575 0 -6.08179
-52.0133 0 -24.9372
13.6672 0 -61.4451
-24.1045 0 13.2618
17.8144 0 12.3972
-9.87172 0 57.8315
10.3823 0 9.43534
-10.0807 0 -3.25299
22.6019 0 -38.455
10.3187 0 6.86509
52.2284 0 13.8289
3.74189 0 8.96059
-11.5279 0 0.186744
15.2554 0 -18.7198
-20.9683 0 -11.4145
-21.8182 0 69.5
6.10444 0 -34.765
-23.481 0 -17.8791
-33.1821 0 29.7994
-15.3767 0 -27.4783
12.1703 0 13.3451
3.7139 0 11.2593
21.1286 0 -5.44775
37.2515 0 31.4395
14.8822 0 -5.27329
20.114 0 8.94893
-4.50118 0 16.3438
10.0433 0 44.1942
5.87835 0 -12.6082
1.24686 0 -7.89017
14.3645 0 -4.50733
-17.2961 0 -7.44953
-2.39527 0 -20.3006
5.2982 0 17.8716
-12.4976 0 -31.7782
-63.7217 0 -6.99089
-79.7907 0 -44.434
1.5419 0 -10.7271
3.73769 0 37.6476
-2.98421 0 19.7242
-71.2533 0 13.0167
16.5431 0 7.95781
-9.78378 0 8.90413
-1.62756 0 12.7424
-83.6396 0 96.9727
31.3159 0 -31.1566
-8.47722 0 -3.47981
-4.6865 0 -4.05302
3.52945 0 3.664
-37.8524 0 -9.6433
-5.45698 0 22.7571
1.55286 0 -4.07296
7.25265 0 -1.88105
1.57051 0 19.1179
3.1618 0 6.04111
-14.7454 0 8.03329
35.6123 0 -16.133
7.85308 0 0.317242
39.8975 0 -0.621815
-17.7835 0 6.41783
-11.5498 0 -7.50654
16.9416 0 -1.6897
-10.2186 0 108.897
33.0076 0 -45.7649
15.8817 0 -44.2683
13.2424 0 8.01276
-7.8949 0 45.0261
-35.6874 0 0.592891
49.0447 0 -13.505
35.3271 0 19.3789
-1.86602 0 -2.58496
-1.14504 0 -5.74364
10.8215 0 9.56593
-19.5948 0 7.05792
1.81673 0 -24.87
-6.17902 0 10.2867
-10.9297 0 -18.2533
21.4482 0 60.8899
2.97917 0 -17.558
35.5894 0 33.3457
-20.7756 0 16.6604
-20.2685 0 8.91971
-9.20484 0 -0.132622
-26.5018 0 -18.7398
-12.1643 0 -3.24884
-4.74639 0 -22.6915
18.5238 0 1.81149
20.9532 0 1.59342
-1.8092 0 -5.54933
11.6997 0 5.40608
-4.92398 0 -8.21621
3.58849 0 4.4617
-1.72236 0 11.5176
22.7512 0 8.58198
0.994378 0 -18.9966
-9.16929 0 -5.94037
-2.51315 0 -32.6573
-15.1038 0 1.46925
7.65025 0 12.2964
8.26285 0 -11.7053
-27.8613 0 12.6942
-2.75472 0 -25.2106
9.39095 0 -14.6054
-16.1645 0 -2.7751
0.397472 0 4.7149
14.1108 0 -1.24565
14.4603 0 -0.975171
1.23457 0 -1.27336
-17.4247 0 -16.9686
3.14341 0 3.38955
-61.0278 0 -5.29318
7.04257 0 37.5891
-0.63089 0 -2.48711
0.126498 0 15.6864
-61.7618 0 -25.5603
16.9862 0 50.1391
-7.22708 0 -24.6572
4.22644 0 48.8635
-9.47711 0 7.60011
-24.1928 0 -24.5336
-11.2117 0 31.63
28.3275 0 -1.23705
3.85856 0 -8.89643
-11.7465 0 28.5723
-43.9783 0 70.6376
11.9098 0 -0.140983
-0.341497 0 -31.8329
46.6509 0 -19.6296
2.69309 0 7.50094
-6.52849 0 -41.2051
-14.2718 0 9.64593
-7.9302 0 14.0221
12.7695 0 3.97508
13.4272 0 -48.1062
-16.0467 0 4.1198
-9.48495 0 -4.31064
15.4945 0 -8.4336
28.8768 0 -8.80008
-7.02084 0 5.12208
14.1259 0 12.4256
8.37047 0 2.68311
78.1812 0 -44.6416
7.06012 0 -11.0659
1.30624 0 -20.131
-38.2885 0 0.866785
15.4598 0 12.3572
15.2483 0 -1.78484
41.2357 0 -13.1862
-13.3605 0 14.7506
3.41392 0 -14.414
14.4125 0 4.01944
-9.5385 0 5.04729
-15.6486 0 1.56868
14.1083 0 -9.65738
50.8353 0 -79.0425
11.2183 0 16.9001
14.9339 0 -33.0893
1.2967 0 6.68083
-4.82617 0 -4.55468
46.7431 0 3.12002
18.996 0 -5.15805
45.2166 0 -16.1343
5.8444 0 16.2122
-12.7358 0 -14.1118
-0.560423 0 15.9922
-2.8012 0 13.497
12.5219 0 9.49923
-4.91508 0 -0.113498
9.26212 0 9.279
6.59207 0 -27.9155