# vtk DataFile Version 3.0
SiWiRVisFile
ASCII
DATASET UNSTRUCTURED_GRID
POINTS 1600 DOUBLE
75.1362 100 71.335
73.1983 100 71.6412
74.3545 100 72.1839
76.2445 100 72.0517
77.1289 100 72.686
78.4531 100 73.1279
79.4491 100 72.5618
80.4511 100 73.1048
81.3115 100 73.7759
80.5143 100 71.6332
94.0715 100 60.8421
92.8697 100 60.7605
93.3211 100 61.9148
91.7989 100 60.1514
79.9213 100 62.6973
88.8114 100 55.759
91.4856 100 53.0095
88.736 100 50.9917
83.2702 100 41.6483
94.0885 100 46.1118
108.308 100 18.6561
107.621 100 17.1986
107.312 100 15.9936
108.673 100 15.3349
106.798 100 19.9253
111.707 100 18.7443
110.837 100 10.1334
116.495 100 11.1004
109.977 100 13.5548
110.186 100 12.3382
111.634 100 11.6231
112.676 100 11.2959
110.615 100 11.1836
113.975 100 11.1346
114.639 100 15.3468
115.708 100 20.1188
115.692 100 14.6142
115.338 100 17.9097
114.094 100 18.0258
114.821 100 18.9161
133.874 100 48.362
141.222 100 41.6484
132.148 100 50.3755
133.697 100 51.6395
135.578 100 50.5252
135.349 100 65.4818
133.652 100 60.9561
133.196 100 63.0463
132.454 100 60.6451
132.718 100 61.6637
143.585 100 72.0696
142.256 100 73.7958
143.29 100 73.1759
144.522 100 72.678
146.432 100 72.9013
147.451 100 72.2274
148.503 100 71.9919
150.878 100 72.264
151.98 100 72.0462
150.057 100 71.6417
72.293 100 72.4932
73.3138 100 72.8935
75.3836 100 72.7251
76.3078 100 73.306
77.3632 100 73.7782
79.4241 100 73.6397
80.3256 100 74.2509
81.439 100 74.9951
82.3029 100 74.3017
83.6336 100 74.6804
84.7082 100 74.1739
92.7617 100 59.5432
91.7838 100 61.3408
91.5846 100 57.3627
89.5197 100 54.6817
91.0196 100 58.3815
91.0366 100 51.9569
89.9366 100 51.6133
91.8695 100 50.7372
95.6469 100 47.7992
107.229 100 18.6252
94.5934 100 27.3123
107.852 100 33.1067
108.349 100 16.3985
108.871 100 17.5007
112.694 100 17.8277
113.387 100 16.5875
112.359 100 16.4182
105.403 100 3.63979
111.171 100 12.7108
112.368 100 12.4855
119.72 100 3.74788
113.801 100 14.6134
115.913 100 13.4665
115.862 100 16.9264
115.738 100 15.7819
114.135 100 13.1672
119.183 100 33.462
129.954 100 27.2293
115.923 100 18.8715
128.577 100 47.9529
130.298 100 48.0207
133.521 100 49.7298
135.059 100 51.4796
133.368 100 59.8932
133.511 100 53.9397
132.245 100 56.5695
133.811 100 62.1121
131.379 100 60.4013
139.914 100 74.434
141.087 100 74.3388
142.215 100 74.9013
143.226 100 74.2867
144.196 100 73.7951
145.327 100 73.4543
147.408 100 73.6009
148.347 100 73.0631
149.403 100 72.6734
151.906 100 73.1627
153.033 100 72.5358
72.4467 100 73.5817
73.5034 100 74.1448
74.369 100 73.3245
75.367 100 73.7557
76.4695 100 74.4363
78.4255 100 74.2628
79.4172 100 74.9463
80.4019 100 75.4418
81.2789 100 76.0647
82.4237 100 75.3784
84.7327 100 75.2679
83.2234 100 76.8639
85.5525 100 76.208
92.1112 100 58.4437
90.3839 100 57.4568
92.6133 100 55.2091
92.6784 100 53.0283
92.4288 100 51.7615
94.4309 100 49.0324
94.5523 100 47.2778
95.4224 100 46.6676
104.772 100 33.9322
106.628 100 33.7909
106.765 100 34.9482
93.5613 100 30.7928
107.697 100 34.178
107.458 100 31.8709
106.607 100 32.5333
111.911 100 13.4904
112.183 100 14.524
113.003 100 13.4616
113.534 100 12.186
121.663 100 33.9511
115.33 100 29.7943
118.147 100 32.9892
120.508 100 33.872
118.941 100 34.6381
119.977 100 34.9538
121.031 100 34.9412
127.806 100 46.9484
134.664 100 49.5899
131.156 100 49.7914
134.395 100 50.6285
133.098 100 50.7857
132.146 100 54.3128
132.371 100 55.5017
132.281 100 59.3638
139.638 100 75.4686
140.046 100 76.4904
140.788 100 75.6064
141.824 100 75.9515
143.17 100 75.4908
144.097 100 75.0308
145.254 100 74.581
146.28 100 74.1162
148.323 100 74.2194
149.303 100 73.7909
150.336 100 73.28
151.42 100 74.3333
152.681 100 73.9294
72.5888 100 74.674
73.6785 100 75.2148
74.5123 100 74.5249
75.5939 100 75.0605
77.4534 100 75.0587
78.4408 100 75.5241
79.3843 100 76.1931
80.2641 100 76.7072
82.2419 100 76.484
83.4585 100 75.8459
83.3641 100 78.3454
84.4569 100 76.3882
85.9486 100 74.9056
92.0035 100 56.3442
90.8617 100 56.3733
89.5853 100 56.4824
92.3312 100 54.0604
90.9897 100 54.3132
93.4904 100 52.1302
93.1502 100 50.8681
93.155 100 47.5915
96.5917 100 46.9637
105.675 100 33.299
104.061 100 36.9104
105.705 100 34.4424
105.839 100 35.6077
108.295 100 36.3533
109.456 100 35.5684
108.648 100 32.2233
112.974 100 15.4286
114.836 100 14.0228
112.137 100 28.2742
116.075 100 35.6795
116.966 100 35.0507
118.051 100 35.2654
120.521 100 35.8799
119.195 100 35.7331
118.964 100 32.059
127.449 100 48.1548
130.17 100 50.1145
130.859 100 51.0325
132.977 100 52.9024
131.382 100 53.5416
131.037 100 54.8607
131.172 100 55.9815
132.812 100 58.3228
131.997 100 57.5706
138.864 100 74.3024
139.203 100 77.6668
141.107 100 76.8148
142.112 100 77.0496
143.102 100 76.7382
144.056 100 76.0705
145.164 100 75.8436
146.154 100 75.3107
147.313 100 74.6078
149.21 100 74.9685
150.182 100 74.4576
151.152 100 75.4718
152.285 100 74.9773
72.6907 100 75.6872
73.6837 100 76.3026
74.6545 100 75.6504
76.5167 100 75.6678
77.5247 100 76.141
78.4502 100 76.6702
79.2533 100 77.5253
80.3888 100 78.0126
81.288 100 77.3149
82.2859 100 77.6857
83.3642 100 79.4866
86.4679 100 77.0796
86.7803 100 76.0221
94.7181 100 54.343
91.5186 100 55.4861
90.4773 100 55.2883
95.1648 100 53.3484
94.6507 100 52.3168
93.948 100 50.1622
95.4191 100 51.0928
95.0008 100 50.0768
101.793 100 42.7937
105.166 100 36.669
107.22 100 37.1691
107.106 100 35.9847
108.389 100 37.4331
109.237 100 36.8654
110.341 100 36.6939
107.957 100 35.2903
110.784 100 18.1949
109.574 100 18.4911
116.951 100 32.4201
112.783 100 34.1504
114.929 100 36.1982
117.028 100 36.2428
117.844 100 34.1322
118.244 100 36.3546
118.554 100 37.5636
123.933 100 43.4367
129.545 100 47.2354
129.216 100 48.9759
129.739 100 51.1809
132.33 100 51.5979
130.281 100 53.5167
129.229 100 53.4832
131.073 100 58.212
131.09 100 57.0018
139.026 100 76.4495
139.209 100 78.7662
141.147 100 80.2707
141.79 100 78.1101
143.076 100 77.751
144.089 100 77.3942
145.144 100 76.9021
146.095 100 76.4208
147.109 100 75.83
148.203 100 75.3138
150.071 100 75.6546
150.937 100 76.4629
152.144 100 76.0639
72.6018 100 76.7184
73.6395 100 77.3568
74.7146 100 76.8106
75.6028 100 76.2764
76.5481 100 76.8203
77.7996 100 77.4505
78.2157 100 78.4942
79.5147 100 78.7084
80.6837 100 79.1461
81.4248 100 78.4105
82.4191 100 78.8993
84.1856 100 77.4698
86.0378 100 78.2149
85.6387 100 73.7823
88.8705 100 75.321
93.4669 100 54.2307
95.7237 100 54.3479
96.9541 100 54.4878
96.3752 100 53.3225
94.2954 100 51.226
96.2697 100 49.9073
97.0087 100 48.332
102.489 100 41.8657
103.176 100 40.3789
106.167 100 36.8111
106.242 100 37.9111
107.875 100 39.6682
109.603 100 37.9735
111.339 100 37.6191
110.521 100 35.1589
115.081 100 34.9082
114.136 100 34.4099
116.132 100 36.8971
115.243 100 37.5113
117.122 100 37.4008
119.455 100 36.853
119.521 100 37.9828
124.736 100 42.1243
126.833 100 49.1409
128.06 100 49.2688
128.893 100 50.0628
131.749 100 52.4706
128.389 100 54.2024
129.163 100 55.243
130.022 100 54.5359
138.502 100 75.447
142.182 100 69.4264
138.766 100 80.444
140.455 100 78.1626
142.728 100 78.8289
143.842 100 78.5417
144.923 100 79.2314
144.849 100 78.2047
145.911 100 77.8076
147.096 100 76.9985
148.034 100 76.4429
148.994 100 76.0412
150.015 100 76.9045
150.856 100 77.7424
151.831 100 77.1507
71.3238 100 76.9803
72.6294 100 77.8167
74.7679 100 78.098
75.7148 100 77.4089
76.7866 100 77.862
76.8392 100 80.3581
77.8909 100 79.6007
79.7183 100 79.7095
80.6208 100 80.2646
81.6179 100 79.7507
86.3003 100 79.4869
85.339 100 77.2196
87.3642 100 80.3176
87.4608 100 75.1284
94.045 100 55.2415
93.8838 100 53.2245
95.1798 100 55.4063
98.0725 100 54.1244
95.7401 100 52.33
96.3559 100 51.522
95.5369 100 48.8233
99.8117 100 48.7784
103.706 100 42.0334
105.217 100 37.7287
110.463 100 41.6374
108.575 100 38.5487
103.965 100 43.4206
109.578 100 39.1449
103.907 100 44.4513
105.391 100 43.1359
120.746 100 43.9664
117.582 100 43.9007
115.476 100 38.8774
117.746 100 42.7543
117.115 100 40.5041
116.258 100 38.007
117.649 100 38.3231
121.82 100 43.7223
124.013 100 44.6427
127.701 100 50.3684
128.477 100 51.1298
130.001 100 52.4201
127.843 100 53.1627
128.107 100 55.2952
130.131 100 55.6517
129.983 100 56.8114
137.749 100 74.5238
131.316 100 75.5638
140.187 100 79.6507
142.732 100 79.9536
143.837 100 79.7301
144.761 100 80.3258
145.933 100 79.561
147.163 100 78.6519
148.035 100 79.4158
147.882 100 77.7298
148.936 100 77.1811
149.869 100 78.0119
151.839 100 78.2494
152.884 100 76.8216
71.4737 100 78.0604
72.6145 100 78.9537
73.7787 100 78.4941
74.7446 100 79.1223
75.865 100 78.465
76.0264 100 79.5394
77.0119 100 78.9896
78.6934 100 80.2804
79.6801 100 80.8884
81.0856 100 81.2603
82.3953 100 81.1993
81.8447 100 82.2561
84.9332 100 78.5718
84.5685 100 79.5593
83.012 100 82.0543
89.9969 100 77.3286
94.2887 100 57.8088
96.3177 100 55.5
98.388 100 53.0181
97.3683 100 53.3859
97.4043 100 52.1221
97.1833 100 50.5387
102.934 100 43.0724
104.394 100 38.4983
107.446 100 38.3521
109.525 100 40.238
106.526 100 39.2569
103.137 100 45.7849
105.492 100 45.1167
107.503 100 45.8127
119.27 100 43.5694
120.921 100 45.0725
121.694 100 45.8047
118.272 100 40.5138
117.851 100 41.6444
117.81 100 39.4437
118.722 100 38.7669
122.905 100 43.8357
125.917 100 49.6411
128.84 100 52.4829
127.778 100 52.0774
126.666 100 51.8398
127.004 100 55.2368
129.004 100 56.3485
130.933 100 74.574
141.741 100 82.2578
141.163 100 81.4051
140.269 100 80.8562
142.244 100 80.9524
142.792 100 82.149
143.561 100 80.8479
145.847 100 80.5997
146.899 100 80.9837
147.021 100 79.7517
149.011 100 79.852
148.733 100 78.5671
149.928 100 79.0305
150.949 100 78.8232
151.957 100 79.3887
152.923 100 78.7766
71.0801 100 79.3714
72.1176 100 80.0442
73.6901 100 79.6562
74.6073 100 80.3597
75.8815 100 82.2795
73.1746 100 82.809
75.7799 100 80.6397
77.7363 100 81.03
78.7636 100 81.454
78.1006 100 82.3153
79.562 100 82.4833
80.2184 100 83.2636
80.7333 100 82.314
81.4341 100 83.2217
83.3429 100 80.5516
87.51 100 77.8284
96.118 100 57.7237
95.879 100 56.4845
99.4943 100 53.6846
99.6141 100 51.0434
[...]
POINT_DATA 1600
SCALARS mass double
LOOKUP_TABLE default
1
1
1
1
1
1
1
1
1
1
1
1
1
1
1
1
1
1
1
1
1
1
1
1
1
1
1
1
1
1
1
1
1
1
1
1
1
1
1
1
1
1
1
1
1
1
1
1
1
1
1
1
1
1
1
1
1
1
1
1
1
1
1
1
1
1
1
1
1
1
1
1
1
1
1
1
1
1
1
1
1
1
1
1
1
1
1
1
1
1
1
1
1
1
1
1
1
1
1
1
1
1
1
1
1
1
1
1
1
1
1
1
1
1
1
1
1
1
1
1
1
1
1
1
1
1
1
1
1
1
1
1
1
1
1
1
1
1
1
1
1
1
1
1
1
1
1
1
1
1
1
1
1
1
1
1
1
1
1
1
1
1
1
1
1
1
1
1
1
1
1
1
1
1
1
1
1
1
1
1
1
1
1
1
1
1
1
1
1
1
1
1
1
1
1
1
1
1
1
1
1
1
1
1
1
1
1
1
1
1
1
1
1
1
1
1
1
1
1
1
1
1
1
1
1
1
1
1
1
1
1
1
1
1
1
1
1
1
1
1
1
1
1
1
1
1
1
1
1
1
1
1
1
1
1
1
1
1
1
1
1
1
1
1
1
1
1
1
1
1
1
1
1
1
1
1
1
1
1
1
1
1
1
1
1
1
1
1
1
1
1
1
1
1
1
1
1
1
1
1
1
1
1
1
1
1
1
1
1
1
1
1
1
1
1
1
1
1
1
1
1
1
1
1
1
1
1
1
1
1
1
1
1
1
1
1
1
1
1
1
1
1
1
1
1
1
1
1
1
1
1
1
1
1
1
1
1
1
1
1
1
1
1
1
1
1
1
1
1
1
1
1
1
1
1
1
1
1
1
1
1
1
1
1
1
1
1
1
1
1
1
1
1
1
1
1
1
1
1
1
1
1
1
1
1
1
1
1
1
1
1
1
1
1
1
1
1
1
1
1
1
1
1
1
1
1
1
1
1
1
1
1
1
1
1
1
1
1
1
1
1
1
1
1
1
1
1
1
1
1
1
1
1
1
1
1
1
1
1
1
1
1
1
1
1
1
1
1
1
1
1
1
1
1
1
1
1
1
1
1
1
1
1
1
1
1
1
1
1
1
1
1
1
1
1
1
1
1
1
1
1
1
1
1
1
1
1
1
1
1
1
1
1
1
1
1
1
1
1
1
1
1
1
1
1
1
1
1
1
1
1
1
1
1
1
1
1
1
1
1
1
1
1
1
1
1
1
1
1
1
1
1
1
1
1
1
1
1
1
1
1
1
1
1
1
1
1
1
1
1
1
1
1
1
1
1
1
1
1
1
1
1
1
1
1
1
1
1
1
1
1
1
1
1
1
1
1
1
1
1
1
1
1
1
1
1
1
1
1
1
1
1
1
1
1
1
1
1
1
1
1
1
1
1
1
1
1
1
1
1
1
1
1
1
1
1
1
1
1
1
1
1
1
1
1
1
1
1
1
1
1
1
1
1
1
1
1
1
1
1
1
1
1
1
1
1
1
1
1
1
1
1
1
1
1
1
1
1
1
1
1
1
1
1
1
1
1
1
1
1
1
1
1
1
1
1
1
1
1
1
1
1
1
1
1
1
1
1
1
1
1
1
1
1
1
1
1
1
1
1
1
1
1
1
1
1
1
1
1
1
1
1
1
1
1
1
1
1
1
1
1
1
1
1
1
1
1
1
1
1
1
1
1
1
1
1
1
1
1
1
1
1
1
1
1
1
1
1
1
1
1
1
1
1
1
1
1
1
1
1
1
1
1
1
1
1
1
1
1
1
1
1
1
1
1
1
1
1
1
1
1
1
1
1
1
1
1
1
1
1
1
1
1
1
1
1
1
1
1
1
1
1
1
1
1
1
1
1
1
1
1
1
1
1
1
1
1
1
1
1
1
1
1
1
1
1
1
1
1
1
1
1
1
1
1
1
1
1
1
1
1
1
1
1
1
1
1
1
1
1
1
1
1
1
1
1
1
1
1
1
1
1
1
1
1
1
1
1
1
1
1
1
1
1
1
1
1
1
1
1
1
1
1
1
1
1
1
1
1
1
1
1
1
1
1
1
1
1
1
1
1
1
1
1
1
1
1
1
1
1
1
1
1
1
1
1
1
1
1
1
1
1
1
1
1
1
1
1
1
1
1
1
1
1
1
1
1
1
1
1
1
1
1
1
1
1
1
1
1
1
1
1
1
1
1
1
1
1
1
1
1
1
1
1
1
1
1
1
1
1
1
1
1
1
1
1
1
1
1
1
1
1
1
1
1
1
1
1
1
1
1
1
1
1
1
1
1
1
1
1
1
1
1
1
1
1
1
1
1
1
1
1
1
1
1
1
1
1
1
1
1
1
1
1
1
1
1
1
1
1
1
1
1
1
1
1
1
1
1
1
1
1
1
1
1
1
1
1
1
1
1
1
1
1
1
1
1
1
1
1
1
1
1
1
1
1
1
1
1
1
1
1
1
1
1
1
1
1
1
1
1
1
1
1
1
1
1
1
1
1
1
1
1
1
1
1
1
1
1
1
1
1
1
1
1
1
1
1
1
1
1
1
1
1
1
1
1
1
1
1
1
1
1
1
1
1
1
1
1
1
1
1
1
1
1
1
1
1
1
1
1
1
1
1
1
1
1
1
1
1
1
1
1
1
1
1
1
1
1
1
1
1
1
1
1
1
1
1
1
1
1
1
1
1
1
1
1
1
1
1
1
1
1
1
1
1
1
1
1
1
1
1
1
1
1
1
1
1
1
1
1
1
1
1
1
1
1
1
1
1
1
1
1
1
1
1
1
1
1
1
1
1
1
1
1
1
1
1
1
1
1
1
1
1
1
1
1
1
1
1
1
1
1
1
1
1
1
1
1
1
1
1
1
1
1
1
1
1
1
1
1
1
1
1
1
1
1
1
1
1
1
1
1
1
1
1
1
1
1
1
1
1
1
1
1
1
1
1
1
1
1
1
1
1
1
1
1
1
1
1
1
1
1
1
1
1
1
1
1
1
1
1
1
1
1
1
1
1
1
1
1
1
1
1
1
1
1
1
1
1
1
1
1
1
1
1
1
1
1
1
1
1
1
1
1
1
1
1
1
1
1
1
1
1
1
1
1
1
1
1
1
1
1
1
1
1
1
1
1
1
1
1
1
1
1
1
1
1
1
1
1
1
1
1
1
1
1
1
1
1
1
1
1
1
1
1
1
1
1
1
1
1
1
1
1
1
1
1
1
1
1
1
1
1
1
1
1
1
1
1
1
1
1
1
1
1
1
1
1
1
1
1
1
1
1
1
1
1
1
1
1
1
1
1
1
1
1
1
1
1
1
1
1
1
1
1
1
1
1
1
1
1
1
1
1
1
1
1
1
1
1
1
1
1
1
1
1
1
1
1
1
1
1
1
1
1
1
1
1
1
1
1
1
1
1
1
1
1
1
1
1
1
1
1
1
1
1
1
1
1
1
1
1
1
1
1
1
1
1
1
1
1
1
1
1
1
1
1
1
1
1
1
1
1
1
1
1
1
1
1
1
1
1
1
1
1
1
1
1
1
1
1
1
1
1
1
1
1
1
1
1
1
1
1
1
1
1
1
1
1
1
1
1
1
1
1
1
1
1
1
VECTORS force double
4.80408 0 20.2137
4.35197 0 26.2621
-7.43567 0 7.30243
-12.1506 0 -6.22141
69.9425 0 -29.1233
-21.0708 0 1.48107
5.43184 0 -17.3375
-20.9782 0 -4.10908
18.101 0 16.6228
-6.34219 0 12.3169
-17.8059 0 5.95766
-6.38894 0 -0.322286
-1.48114 0 -21.7877
14.0635 0 11.1898
0 0 0
-14.9673 0 -32.5303
15.1 0 7.27619
8.86462 0 4.57135
0 0 0
10.0348 0 15.9765
32.7348 0 -14.4958
-2.93926 0 12.9949
5.60953 0 8.4883
-3.96517 0 -0.181713
3.67403 0 -9.42893
25.7246 0 4.03752
6.29196 0 -18.932
-0.0556689 0 0.226322
8.62441 0 -15.4015
-29.7879 0 -14.7332
-12.7642 0 17.2366
25.819 0 16.4555
-10.1445 0 35.5017
-13.2519 0 6.59139
18.4267 0 -9.58397
-1.57336 0 -16.8418
33.5754 0 36.2233
-13.8884 0 5.97741
7.09438 0 -1.22198
-6.19065 0 -2.19795
1.71583 0 13.7213
0 0 0
-59.2039 0 -12.7851
30.8355 0 33.6456
-12.1276 0 -19.5922
0 0 0
-16.4377 0 18.3999
-2.65121 0 -5.9516
15.014 0 -51.394
27.7767 0 40.5848
-2.21136 0 6.8094
-11.3184 0 -11.1306
-5.28524 0 -9.21707
-10.3031 0 13.5651
7.15291 0 19.0628
-19.5303 0 29.4936
26.5319 0 -18.0456
52.6138 0 54.6333
5.27802 0 3.67411
-61.952 0 -25.2785
0.327842 0 -18.6874
28.6441 0 -2.96335
-32.9038 0 -68.8823
6.26244 0 22.9628
15.0727 0 6.34138
-4.30974 0 30.0722
5.97087 0 25.1323
-45.464 0 -40.8196
9.2996 0 -14.5699
3.24331 0 14.439
-95.8442 0 37.6916
-7.93002 0 5.04735
14.4612 0 -15.6529
-20.5405 0 13.4806
2.33593 0 12.2215
-5.94633 0 -7.75343
8.7317 0 -2.73873
-1.22001 0 -2.33717
12.5571 0 14.9143
8.78562 0 -80.0371
-18.5533 0 1.50147
0 0 0
-10.4014 0 -33.8715
18.4257 0 2.89463
-14.9875 0 6.43468
1.95271 0 -5.66435
46.7818 0 4.97362
-44.6604 0 -9.3973
0 0 0
32.3323 0 -12.206
8.49713 0 -12.5721
0 0 0
-4.4553 0 -14.0184
-14.0911 0 14.0402
-0.968763 0 -7.84551
-9.95874 0 -6.84679
-16.3614 0 -1.48409
-2.81997 0 10.1715
0 0 0
3.70004 0 9.22812
1.74524 0 2.88209
2.06752 0 16.4289
10.6019 0 7.80255
-5.70282 0 26.8953
-22.1659 0 -7.25372
-12.9494 0 -5.15066
-9.69488 0 -41.5814
-10.421 0 -14.1076
1.54446 0 -7.81892
52.5031 0 -11.9103
8.97487 0 15.407
-3.51363 0 -2.68033
-3.57239 0 36.288
37.7793 0 6.92234
8.00465 0 6.20874
-28.4524 0 -100.104
12.3525 0 16.031
5.25677 0 -11.2907
-15.3765 0 -6.45889
-19.4669 0 9.50997
8.343 0 9.64491
7.75506 0 -62.2527
-15.3303 0 2.77896
-26.5972 0 111.045
11.1336 0 -4.53231
0.799257 0 14.1105
-14.3826 0 -9.53034
-20.1509 0 -2.84444
-24.4562 0 25.5628
36.6931 0 33.1464
0.759826 0 20.1988
28.9261 0 70.1249
29.9374 0 -70.7942
11.0384 0 1.71789
9.32745 0 -20.6136
3.14899 0 -8.6538
14.291 0 -25.0616
-6.66064 0 4.3861
2.83459 0 16.7453
-24.8067 0 16.4317
30.7593 0 -10.0521
-28.7987 0 -9.64085
29.6132 0 6.66012
3.84301 0 -25.275
0 0 0
-15.4896 0 27.553
29.8363 0 3.267
-14.8768 0 36.7435
-6.24377 0 -5.08627
23.6431 0 25.3944
17.7867 0 -2.35976
-19.1345 0 4.47388
-13.3682 0 8.2074
0 0 0
-0.110072 0 -0.168394
-3.84385 0 19.48
-12.2299 0 -27.4166
-25.6901 0 -29.8849
48.734 0 -40.4599
5.96084 0 21.8918
2.72109 0 -16.9566
54.3175 0 -2.43383
-33.7451 0 8.76745
39.4551 0 -22.5454
8.7922 0 21.9354
-16.5955 0 -30.7612
7.78042 0 12.3997
-12.4674 0 16.2296
79.5628 0 10.5502
-17.7846 0 -5.00671
22.3731 0 6.0522
-89.8036 0 11.2618
71.3893 0 -92.8763
-13.8655 0 12.88
8.82258 0 -5.8153
5.94781 0 -1.88031
12.5884 0 -12.8099
4.79573 0 10.3287
-19.6622 0 -17.8749
-0.232996 0 4.11243
-25.0372 0 -53.4234
-33.7718 0 -6.55457
44.6027 0 -11.0731
-30.0263 0 2.99962
-9.27953 0 -43.6836
23.964 0 -2.2955
-30.1694 0 -74.4681
82.7722 0 46.748
-1.10289 0 15.8774
11.8606 0 -53.8035
10.0065 0 -18.8134
-6.16914 0 0.922475
-12.832 0 9.64146
78.5277 0 119.838
-9.92972 0 18.217
48.2728 0 24.4806
-10.7588 0 19.2081
17.2115 0 -3.20152
8.90678 0 -1.62398
-21.2898 0 36.6997
9.4567 0 -2.719
-18.7114 0 12.8892
-4.39511 0 -15.5888
10.8748 0 7.56413
38.4765 0 21.6256
9.43138 0 12.8229
-33.4184 0 -26.1441
-5.89079 0 19.1307
-19.434 0 4.93836
0.935588 0 2.84635
-40.9966 0 -14.9364
0 0 0
-33.3145 0 15.1735
13.9386 0 -4.11818
-1.07418 0 7.1762
-17.8309 0 44.1526
-7.28273 0 8.30204
-7.42747 0 17.299
11.1821 0 6.06565
-67.5019 0 22.5839
6.70991 0 -12.2208
-10.2856 0 -5.03808
-5.59665 0 -3.59362
33.2849 0 2.85772
31.4504 0 -68.1181
-2.87433 0 11.9338
-0.0291942 0 71.6945
-36.0603 0 15.0172
80.6567 0 -50.8614
-60.0347 0 -14.5048
18.5185 0 28.9942
66.1759 0 -122.729
29.5117 0 90.5555
-16.9192 0 -56.1537
-9.32563 0 -30.0612
-35.8996 0 118.043
9.80632 0 -34.5322
28.8249 0 5.24172
40.7085 0 -103.674
3.68969 0 7.62785
13.9157 0 33.4217
0.842699 0 -27.4292
15.5388 0 23.9137
7.7825 0 -6.50151
-32.6233 0 22.2669
47.8646 0 -32.8771
5.29392 0 -2.9664
-8.5154 0 -10.6882
-31.2411 0 -38.1338
45.6175 0 8.91819
13.4057 0 -31.2792
-7.93349 0 15.3043
-4.66152 0 -7.74415
-125.275 0 8.94802
-43.3832 0 -148.176
-39.4772 0 11.3647
8.50315 0 -20.9068
-23.3623 0 1.02638
-8.45122 0 -25.3514
-56.4172 0 -8.69073
38.1504 0 -20.2266
15.3175 0 -3.04553
-90.8384 0 -52.0993
12.8053 0 4.83681
-9.39386 0 35.6557
-74.4891 0 71.1306
88.1776 0 -35.033
0.0877108 0 1.09953
-2.71518 0 -13.5049
-29.8833 0 -8.99669
-6.7742 0 -11.0877
11.0298 0 5.511
8.90451 0 1.86173
22.6486 0 -2.94233
25.4068 0 -5.43361
11.2526 0 7.65536
0.805777 0 19.8181
-47.3928 0 -13.6703
8.82078 0 5.20924
-21.4975 0 -1.50156
-8.8593 0 -5.34719
-12.6438 0 1.70922
29.3322 0 -42.2397
42.6271 0 -36.8661
-21.7544 0 16.2598
4.58674 0 -11.9532
-16.5804 0 65.6926
-86.17 0 2.06609
-3.11979 0 13.7702
39.5161 0 -14.1995
4.54633 0 2.02203
-45.6327 0 93.4331
15.8881 0 -20.8081
-35.9565 0 60.8761
46.6148 0 2.43919
13.7671 0 0.110309
-57.076 0 8.62446
-1.41448 0 15.3897
54.2662 0 57.571
-43.8194 0 -12.3334
1.50424 0 56.4751
11.2852 0 34.4876
-56.4155 0 39.368
28.3183 0 -40.0292
85.4516 0 -74.1769
-50.0132 0 51.5494
0.828763 0 5.39106
-19.0016 0 -82.0487
-47.0368 0 17.1616
35.8565 0 -19.633
-16.2721 0 0.370638
3.64818 0 13.1424
-4.20946 0 -8.65266
92.8164 0 -28.1002
-14.0346 0 16.2169
-4.70282 0 20.6371
123.443 0 6.10508
-32.2988 0 -35.3099
-146.478 0 -0.154194
-7.73471 0 4.95672
-15.7692 0 -6.78414
-16.7022 0 -11.1634
13.5411 0 15.5422
17.1184 0 5.52339
92.7116 0 -6.0263
64.0987 0 28.0504
-0.691864 0 -20.3416
-16.7029 0 -4.66723
-9.61358 0 -5.98571
-4.94865 0 6.83014
32.7958 0 31.2198
-31.3255 0 -12.7745
0.639735 0 -26.9377
-11.4803 0 8.89378
27.1501 0 -56.8874
-11.2823 0 -9.52154
35.5358 0 16.0907
-2.60574 0 4.25835
60.7386 0 -15.8637
-2.80374 0 -8.68916
-0.556169 0 7.4804
-18.0864 0 40.8755
-0.196653 0 6.08264
-9.57629 0 -27.0573
-40.948 0 19.0486
-1.82349 0 -7.24011
0 0 0
-11.4741 0 6.58843
-5.49784 0 -2.81605
5.41693 0 -6.13108
-19.7198 0 25.0275
-40.9729 0 50.5831
31.0647 0 -82.4944
0.445477 0 -12.7847
-38.7171 0 -15.7594
-27.3137 0 25.9482
73.6513 0 13.1225
-65.7361 0 19.6114
62.1268 0 -55.7254
-13.179 0 -7.25687
14.8145 0 -12.4234
-6.49392 0 17.9103
33.841 0 -103.52
-77.2606 0 19.5965
-1.12633 0 29.3196
23.9125 0 -76.77
-17.6037 0 -5.14855
-22.589 0 72.7059
22.246 0 10.8501
9.02471 0 -8.9608
-1.79632 0 -4.14022
-22.1796 0 68.7181
47.1816 0 -175.701
7.30118 0 11.5696
-4.8328 0 -8.29838
12.6253 0 -20.9931
7.80453 0 -8.5371
58.9111 0 69.3034
-41.0453 0 74.7843
127.613 0 -47.4438
-1.10881 0 80.6549
15.3469 0 2.59673
-12.7873 0 4.98737
-45.3535 0 23.4086
-1.58218 0 -2.35959
3.81025 0 3.69554
27.1168 0 -57.3292
-8.96032 0 -24.3892
5.90784 0 66.8386
1.8345 0 -18.6245
-18.1201 0 5.5739
12.4047 0 -3.0143
5.85182 0 -15.9481
1.43636 0 11.202
19.7829 0 -2.53622
-29.1011 0 28.6293
24.3511 0 23.7523
-10.4938 0 2.36682
-16.0864 0 -11.1579
-0.47716 0 -21.2894
20.0201 0 20.6606
-11.8696 0 -1.71491
13.7345 0 16.444
-27.829 0 16.7737
27.0395 0 20.8517
22.4227 0 -6.76321
11.4813 0 8.98973
18.0283 0 33.9915
-5.61108 0 3.84936
9.0138 0 4.05791
-3.8517 0 -17.4359
7.20868 0 -145.9
24.5344 0 -40.8291
7.2484 0 -8.7555
-7.30526 0 -29.9831
29.7976 0 15.4461
-10.0871 0 10.2808
-89.3986 0 -56.2493
42.773 0 2.24466
25.7843 0 23.1033
16.4816 0 22.3966
8.97611 0 5.11857
-40.9409 0 15.3074
2.47193 0 84.225
-9.87895 0 23.4088
-2.93302 0 16.8598
-24.3088 0 -21.0274
36.1342 0 39.2602
18.9303 0 -18.7795
16.8851 0 9.13099
-35.5736 0 -25.8856
16.652 0 -69.0522
15.0516 0 -53.5563
-22.0581 0 43.2979
35.1888 0 2.84387
65.8797 0 63.2146
5.97089 0 3.32419
13.7906 0 -35.6489
10.5308 0 3.9732
56.539 0 -46.2121
-7.28923 0 12.9482
6.78649 0 -0.153166
-17.9339 0 -14.5298
8.09129 0 1.59534
-5.72943 0 -6.69277
-1.59921 0 10.7128
17.1166 0 -14.7388
11.1398 0 -21.9618
2.24031 0 3.82022
46.7885 0 17.5518
9.72238 0 -10.4619
-22.4939 0 -15.9953
24.8102 0 41.753
-63.9929 0 44.8318
-0.651278 0 -21.3369
9.9418 0 14.7532
-4.90796 0 -11.6171
4.87589 0 21.2723
17.77 0 -3.49296
-11.8411 0 -25.1808
2.79804 0 -22.4458
21.918 0 -4.70061
-17.9758 0 16.8273
-19.639 0 -17.9334
-4.6942 0 -71.6421
15.4419 0 53.3518
-2.98158 0 -25.3764
-79.9847 0 1.92627
-7.48362 0 17.2026
39.4345 0 -3.64618
5.08757 0 1.45191
-9.23415 0 40.7936
-8.83388 0 1.32381
-18.7439 0 36.0254
28.8256 0 14.6661
18.509 0 -12.349
-55.2575 0 103.085
18.5079 0 -5.4364
50.6672 0 -38.5484
-16.5675 0 8.9297
17.1828 0 -3.73042
9.06811 0 -2.68531
6.46365 0 -19.9889
3.3352 0 1.18654
37.6554 0 27.8567
14.4964 0 -4.59506
-19.9873 0 13.2821
9.45144 0 -2.49298
0.56169 0 0.594742
101.394 0 -22.3027
-33.7412 0 -108.555
74.9068 0 37.4262
-2.81514 0 -7.31436
-26.7508 0 47.8122
-3.79294 0 32.3351
-18.6895 0 -3.75655
-13.9035 0 -0.760528
-10.4503 0 20.627
-21.9408 0 -2.22315
-4.79201 0 5.87723
-8.42925 0 21.8474
-0.815706 0 1.57144
-15.4915 0 -7.30131
2.68406 0 4.68268
43.8695 0 -33.0791
-13.8741 0 -18.9883
-13.2606 0 20.3708
-4.29668 0 15.4771
-58.3182 0 -5.11338
-27.7027 0 10.6153
0.674247 0 10.2049
-15.1771 0 -0.24748
17.8709 0 12.1606
-13.5597 0 3.88946
45.9703 0 -53.0399
-39.6119 0 -7.58044
-19.4673 0 0.706353
4.37672 0 -35.2894
-8.23177 0 -5.32091
-69.6382 0 49.7367
-9.00953 0 4.40823
12.4553 0 5.04158
112.005 0 -24.2179
78.8653 0 -10.5595
-61.1898 0 37.6032
-3.16018 0 -34.3451
20.1907 0 27.8273
-7.92169 0 -14.8649
-31.8537 0 5.56756
5.38206 0 121.091
7.95833 0 51.6565
-10.6963 0 11.9909
4.62449 0 -42.1436
-0.960155 0 -9.09143
-35.4234 0 101.877
26.9223 0 48.952
-13.3865 0 5.25818
-38.6826 0 60.856
-110.716 0 9.89353
54.8726 0 -59.1868
11.8465 0 -15.6431
-77.8497 0 -8.19108
-18.3674 0 0.70059
-15.4216 0 -24.2046
64.3955 0 -7.57811
-21.9118 0 66.6704
13.144 0 4.49462
-3.14345 0 -11.8294
36.2027 0 -25.3345
-164.1 0 -74.7816
48.5335 0 105.617
-45.5693 0 15.7893
53.6903 0 51.7087
56.2363 0 -53.0212
1.69634 0 51.9669
-9.35689 0 -1.18805
-15.4811 0 15.312
3.48611 0 -3.56459
-30.2035 0 -38.5589
11.8942 0 1.30976
24.7869 0 11.6084
5.73703 0 -2.67588
-7.95507 0 4.63154
-40.6202 0 63.2643
-3.53294 0 -12.5747
-27.972 0 -47.1906
3.25727 0 -6.03323
17.1746 0 1.58893
-98.4171 0 64.7309
-13.508 0 -3.89379
-0.699132 0 -13.1053
-35.8579 0 60.3474
55.6083 0 -58.1498
-6.72421 0 0.540275
-11.5194 0 4.82576
23.6364 0 -65.8802
0.109639 0 -10.0151
66.1058 0 -2.34558
-0.451595 0 -11.1333
-27.9956 0 -4.70678
2.17453 0 19.2713
-1.89612 0 5.61675
21.8274 0 -6.90261
-7.13509 0 11.3718
-9.77696 0 -6.09379
3.79294 0 -1.04939
-50.5606 0 -12.062
-12.8176 0 -5.9046
-39.6156 0 -68.2824
15.6307 0 -19.0086
-14.1867 0 30.598
-7.85326 0 -66.7971
-26.7525 0 15.1738
-8.22262 0 -9.81223
11.0922 0 -58.4698
16.0846 0 -15.8841
-9.75055 0 5.98229
-10.9807 0 5.3459
26.0935 0 -112.562
21.9942 0 45.5844
-4.67285 0 -3.67048
-0.433756 0 1.30408
-3.20128 0 16.8661
4.94014 0 1.76012
-33.9288 0 -38.0068
40.5197 0 26.885
-1.76264 0 8.18846
-19.3758 0 20.2176
1.39227 0 7.12696
5.73412 0 -5.51175
12.229 0 -5.47834
-22.2514 0 48.0932
-32.0326 0 -42.7373
-47.4244 0 45.8863
-8.01433 0 33.2621
-17.998 0 -44.4884
26.8015 0 -13.0369
20.2537 0 -44.3466
-26.4719 0 -145.456
4.81418 0 -15.9547
-30.7821 0 7.00885
45.2188 0 -72.8522
4.46594 0 11.1596
4.00286 0 14.1942
4.78465 0 28.8075
7.14815 0 -5.62797
-5.65595 0 5.67976
19.7138 0 -2.15996
1.61468 0 0.493961
-6.90845 0 20.9421
0.909763 0 -8.11292
-0.431257 0 -6.05759
12.7181 0 10.9881
14.9813 0 1.79628
24.331 0 -42.6893
-12.0893 0 -28.0783
-58.6897 0 13.5398
6.07952 0 -28.6633
-18.4218 0 -25.337
-103.603 0 -16.332
11.0694 0 52.1786
68.0345 0 5.53149
-9.52933 0 12.4675
16.546 0 -10.2609
6.48115 0 -6.12931
1.0671 0 -0.55277
52.3768 0 -107.039
-0.0970478 0 7.96175
31.129 0 17.416
6.16644 0 14.0725
42.2143 0 22.7969
34.423 0 -27.2339
5.57043 0 41.533
4.37661 0 6.67149
9.76472 0 3.992
-41.6615 0 -17.7676
13.121 0 30.8498
-11.2122 0 -0.655941
-9.72924 0 2.83235
5.45634 0 -10.9236
-1.29507 0 -38.8614
11.301 0 17.9933
-69.1603 0 -26.7755
-14.0826 0 -8.40103
47.2128 0 -17.3814
-16.0686 0 17.3089
-68.2448 0 -57.9077
-0.0686587 0 9.429
-27.1192 0 0.832545
-20.3712 0 -2.31639
4.66153 0 6.4628
-98.8668 0 30.1705
62.4269 0 -21.1236
31.9927 0 4.76613
-13.8265 0 -71.0874
14.3055 0 -27.13
9.36957 0 -1.67283
16.4356 0 4.77747
-88.1166 0 -42.3439
92.1132 0 36.1677
15.732 0 11.1131
8.46991 0 -0.289351
-34.2275 0 48.5355
-13.8038 0 -6.68102
-6.71394 0 26.0843
33.7427 0 -15.1318
26.4744 0 11.6061
83.0973 0 -63.8996
-7.42798 0 -61.7122
1.62849 0 6.81431
-5.52576 0 -3.16405
-17.9585 0 -1.28879
-5.18393 0 -0.837929
-69.8269 0 -10.5445
16.3625 0 18.2583
13.6956 0 71.7452
7.62624 0 9.3735
-14.6685 0 -5.14634
-20.9639 0 5.22455
-40.1596 0 -15.7179
-17.7637 0 12.2171
12.1603 0 -27.3616
3.12225 0 4.17045
-14.4098 0 -11.6394
-9.0056 0 -6.65965
-5.42206 0 -16.9499
46.807 0 24.444
60.1165 0 0.514383
79.7708 0 -81.9436
-1.72302 0 47.3692
-25.003 0 22.1283
8.90274 0 -2.74216
-11.4077 0 -19.0991
2.48932 0 -1.05059
-14.0172 0 -1.83164
0.466666 0 2.08975
3.05812 0 20.7759
0.17819 0 16.8519
-0.824966 0 0.7156
10.6795 0 -16.356
9.37966 0 -2.59143
7.99057 0 -0.765125
11.5295 0 -1.1044
5.90821 0 17.7232
21.9727 0 29.5682
13.0767 0 69.6696
8.18729 0 52.3684
13.9807 0 -3.93015
52.6114 0 -4.22625
15.5218 0 -0.801104
7.61738 0 -4.6005
-14.1319 0 1.70464
17.0778 0 -10.8503
-11.8215 0 -1.72396
26.1409 0 1.85254
-12.317 0 184.11
-8.72407 0 20.2785
-2.44155 0 -0.326956
-23.2444 0 26.5215
-14.7211 0 -1.92877
4.05078 0 14.2272
5.70428 0 -3.52718
-6.1593 0 12.7308
-68.3323 0 -3.32094
-2.79206 0 -10.6932
25.5169 0 -5.59747
-9.90293 0 21.9637
-12.6911 0 67.3814
4.50528 0 -18.9271
1.03731 0 -14.806
15.4977 0 3.37411
-9.65609 0 37.6177
6.67725 0 -12.2564
7.62866 0 3.763
-34.8887 0 -3.43731
16.4339 0 -3.36174
-18.3768 0 31.0102
-38.3979 0 5.68448
41.6204 0 -40.6563
-17.2956 0 -7.80472
-3.15696 0 -5.72499
161.567 0 8.20345
-11.4907 0 -14.4629
-55.4265 0 20.2032
26.8082 0 -7.455
-71.0871 0 -40.7834
-45.2095 0 -11.5836
2.50413 0 10.8604
-8.67901 0 2.56182
9.79922 0 -4.46974
12.0398 0 -12.4031
4.47157 0 -0.848215
20.5657 0 9.4498
-6.36974 0 -24.2618
-1.6103 0 -5.39914
-10.3421 0 5.14016
50.6088 0 3.16747
-53.0878 0 -65.5327
-12.1326 0 19.1287
-13.2135 0 10.2543
-93.8755 0 74.0524
-10.2746 0 -0.24839
20.2279 0 -0.879987
-5.05661 0 29.4704
26.442 0 -4.30767
-7.1695 0 -18.8754
3.3014 0 -2.27908
1.45177 0 3.77476
-22.0491 0 -4.48267
9.76406 0 -2.06433
0.395145 0 5.44012
-22.7599 0 18.414
-17.0955 0 -13.3714
9.32476 0 -4.09439
4.35277 0 -2.11869
25.3628 0 37.8561
5.30193 0 7.33243
-48.8469 0 73.283
2.5798 0 0.103852
-9.40691 0 -1.52643
14.8132 0 11.6651
13.7987 0 10.264
-56.1936 0 -69.2944
19.7605 0 -2.51716
-25.6171 0 -10.1181
-10.8506 0 -44.0096
-11.9592 0 23.8345
-19.5223 0 51.9519
63.1297 0 -91.3623
2.43339 0 8.61527
12.8016 0 3.28662
15.0863 0 -13.284
10.0559 0 5.36332
1.35628 0 0.522124
0.614815 0 -4.74307
70.0649 0 10.9273
-12.6378 0 5.17956
33.2195 0 -12.1615
30.6969 0 -16.8302
-11.0908 0 5.74762
60.0046 0 -97.1267
18.1664 0 -12.0807
20.1417 0 5.93721
-12.0803 0 5.4802
5.6992 0 30.9362
9.54301 0 103.465
27.9805 0 -8.60134
-8.651 0 -4.54203
-17.5282 0 -0.894149
-3.3107 0 20.4774
-3.02999 0 9.30237
7.91597 0 5.66062
-33.8217 0 -7.43593
7.82871 0 -2.53735
-16.9388 0 22.5602
-52.0476 0 9.98636
4.01978 0 10.8892
7.68499 0 -52.4369
-15.4116 0 13.7391
51.8485 0 44.5947
15.1831 0 14.0486
92.4896 0 -12.2556
6.97857 0 -7.77846
-17.4539 0 11.7051
-32.1341 0 -106.704
1.1135 0 -33.8871
-26.2015 0 -20.0681
-12.4553 0 0.673974
29.7145 0 16.7593
-84.6363 0 23.1421
-7.396 0 -16.8245
-52.3861 0 -18.8094
-38.2455 0 -28.9319
56.4358 0 58.5125
17.635 0 -16.4735
-19.4636 0 -9.98485
25.4192 0 25.6478
-17.4442 0 112.296
-0.400904 0 -0.766812
0.983156 0 -6.48482
-6.92033 0 3.59886
-12.9166 0 -2.52712
67.8406 0 57.5146
51.638 0 6.82888
0.867735 0 2.72605
39.2042 0 21.8774
17.6278 0 0.715048
0 0 0
-65.5631 0 82.747
2.79206 0 10.6932
-4.70725 0 12.2936
-7.57095 0 -15.1151
-3.93115 0 29.2438
-5.36259 0 4.99293
2.26453 0 -0.526507
43.268 0 31.3223
-9.11638 0 6.00957
2.69945 0 14.8639
11.8196 0 -9.50946
-165.19 0 -41.5403
0.786055 0 6.27132
25.4754 0 11.3465
2.42691 0 7.68734
-77.2913 0 80.8556
-2.4065 0 -0.964677
-92.3834 0 -121.471
-29.2652 0 -43.5169
80.7953 0 -60.4932
-90.175 0 61.3818
-21.4121 0 18.2932
38.8616 0 -52.6205
12.9911 0 -8.81747
10.7422 0 4.19862
18.9248 0 24.3779
10.398 0 -19.5514