# vtk DataFile Version 3.0
SiWiRVisFile
ASCII
DATASET UNSTRUCTURED_GRID
POINTS 1600 DOUBLE
79.2007 100 76.2404
80.2568 100 76.5441
81.3474 100 76.5081
82.4086 100 76.578
83.5089 100 76.5509
84.6554 100 76.5212
85.8053 100 76.4957
86.9533 100 76.4741
88.0971 100 76.4602
89.2327 100 76.4519
90.3578 100 76.4449
91.4786 100 76.4415
92.602 100 76.4402
93.7267 100 76.4393
94.8497 100 76.4384
95.9716 100 76.4386
97.0936 100 76.4389
98.2157 100 76.4387
99.338 100 76.4386
100.46 100 76.4386
101.583 100 76.4386
102.705 100 76.4387
103.828 100 76.4387
104.95 100 76.4386
106.073 100 76.4386
107.195 100 76.4386
108.318 100 76.4386
109.44 100 76.4386
110.563 100 76.4386
111.685 100 76.4386
112.807 100 76.4386
113.93 100 76.4386
115.052 100 76.4386
116.175 100 76.4386
117.297 100 76.4386
118.42 100 76.4386
119.542 100 76.4386
120.665 100 76.4387
121.787 100 76.4387
122.91 100 76.4386
124.032 100 76.4386
125.154 100 76.4386
126.277 100 76.4387
127.399 100 76.4389
128.521 100 76.4386
129.643 100 76.4384
130.766 100 76.4393
131.89 100 76.4402
133.014 100 76.4415
134.135 100 76.4449
135.26 100 76.4519
136.395 100 76.4602
137.539 100 76.4741
138.687 100 76.4957
139.837 100 76.5212
140.984 100 76.5509
142.084 100 76.578
143.145 100 76.5081
144.236 100 76.5441
145.292 100 76.2404
79.5044 100 77.2964
80.6835 100 77.7232
81.832 100 77.4965
82.9453 100 77.548
84.0343 100 77.5383
85.1098 100 77.5402
86.176 100 77.5427
87.2404 100 77.5443
88.3051 100 77.5454
89.3661 100 77.5447
90.444 100 77.5428
91.5147 100 77.5424
92.5958 100 77.542
93.7116 100 77.5416
94.8365 100 77.5409
95.9618 100 77.541
97.087 100 77.5413
98.2119 100 77.5411
99.3357 100 77.541
100.459 100 77.541
101.582 100 77.5411
102.704 100 77.5413
103.827 100 77.5413
104.95 100 77.5412
106.072 100 77.5411
107.195 100 77.5411
108.318 100 77.5411
109.44 100 77.5411
110.563 100 77.5411
111.685 100 77.5411
112.807 100 77.5411
113.93 100 77.5411
115.052 100 77.5411
116.175 100 77.5411
117.297 100 77.5411
118.42 100 77.5411
119.543 100 77.5412
120.666 100 77.5413
121.788 100 77.5413
122.911 100 77.5411
124.034 100 77.541
125.157 100 77.541
126.281 100 77.5411
127.405 100 77.5413
128.531 100 77.541
129.656 100 77.5409
130.781 100 77.5416
131.897 100 77.542
132.978 100 77.5424
134.048 100 77.5428
135.126 100 77.5447
136.187 100 77.5454
137.252 100 77.5443
138.316 100 77.5427
139.383 100 77.5402
140.458 100 77.5383
141.547 100 77.548
142.66 100 77.4965
143.809 100 77.7232
144.988 100 77.2964
79.4685 100 78.387
80.457 100 78.872
81.5092 100 78.5487
82.6301 100 78.6309
83.75 100 78.6257
84.8648 100 78.6317
85.9813 100 78.6377
87.0944 100 78.6403
88.2031 100 78.642
89.3171 100 78.6425
90.4251 100 78.641
91.5207 100 78.6408
92.6269 100 78.6409
93.7456 100 78.641
94.8645 100 78.6406
95.9829 100 78.6408
97.1021 100 78.6411
98.2224 100 78.6409
99.3433 100 78.6407
100.464 100 78.6406
101.586 100 78.6406
102.707 100 78.6408
103.828 100 78.641
104.95 100 78.6409
106.073 100 78.6409
107.195 100 78.641
108.318 100 78.641
109.44 100 78.6409
110.563 100 78.6409
111.685 100 78.6409
112.807 100 78.6409
113.93 100 78.6409
115.052 100 78.6409
116.175 100 78.641
117.297 100 78.641
118.42 100 78.6409
119.542 100 78.6409
120.664 100 78.641
121.786 100 78.6408
122.907 100 78.6406
124.028 100 78.6406
125.149 100 78.6407
126.27 100 78.6409
127.39 100 78.6411
128.509 100 78.6408
129.628 100 78.6406
130.747 100 78.641
131.865 100 78.6409
132.972 100 78.6408
134.067 100 78.641
135.175 100 78.6425
136.289 100 78.642
137.398 100 78.6403
138.511 100 78.6377
139.628 100 78.6317
140.742 100 78.6257
141.862 100 78.6309
142.983 100 78.5487
144.035 100 78.872
145.024 100 78.387
79.5385 100 79.4483
80.5083 100 79.9859
81.5908 100 79.6688
82.7063 100 79.747
83.8139 100 79.7404
84.9127 100 79.7424
86.0103 100 79.7435
87.1067 100 79.7426
88.1987 100 79.7422
89.298 100 79.7415
90.398 100 79.7404
91.4865 100 79.7405
92.5904 100 79.7407
93.7111 100 79.7408
94.8357 100 79.7406
95.9603 100 79.7409
97.0847 100 79.7413
98.209 100 79.7412
99.3334 100 79.741
100.458 100 79.7409
101.581 100 79.7409
102.705 100 79.7412
103.828 100 79.7412
104.95 100 79.7411
106.073 100 79.7411
107.195 100 79.7411
108.318 100 79.7411
109.44 100 79.7411
110.562 100 79.7411
111.685 100 79.7412
112.807 100 79.7412
113.93 100 79.7411
115.052 100 79.7411
116.175 100 79.7411
117.297 100 79.7411
118.42 100 79.7411
119.542 100 79.7411
120.665 100 79.7412
121.788 100 79.7412
122.911 100 79.7409
124.035 100 79.7409
125.159 100 79.741
126.283 100 79.7412
127.408 100 79.7413
128.532 100 79.7409
129.657 100 79.7406
130.781 100 79.7408
131.902 100 79.7407
133.006 100 79.7405
134.094 100 79.7404
135.194 100 79.7415
136.294 100 79.7422
137.386 100 79.7426
138.482 100 79.7435
139.58 100 79.7424
140.678 100 79.7404
141.786 100 79.747
142.902 100 79.6688
143.984 100 79.9859
144.954 100 79.4483
79.5116 100 80.5486
80.4988 100 81.0759
81.5858 100 80.7873
82.7008 100 80.8556
83.8081 100 80.8474
84.9084 100 80.8465
86.0097 100 80.8455
87.11 100 80.8432
88.2069 100 80.8419
89.3126 100 80.8414
90.4151 100 80.8409
91.5075 100 80.8413
92.6133 100 80.8413
93.734 100 80.8414
94.8556 100 80.8411
95.9764 100 80.8413
97.0973 100 80.8414
98.2183 100 80.8412
99.3397 100 80.8409
100.462 100 80.8408
101.584 100 80.8408
102.706 100 80.8409
103.828 100 80.8409
104.95 100 80.8407
106.073 100 80.8407
107.195 100 80.8407
108.318 100 80.8407
109.44 100 80.8407
110.563 100 80.8407
111.685 100 80.8407
112.807 100 80.8407
113.93 100 80.8407
115.052 100 80.8407
116.175 100 80.8407
117.297 100 80.8407
118.42 100 80.8407
119.542 100 80.8407
120.664 100 80.8409
121.786 100 80.8409
122.909 100 80.8408
124.031 100 80.8408
125.153 100 80.8409
126.274 100 80.8412
127.395 100 80.8414
128.516 100 80.8413
129.637 100 80.8411
130.758 100 80.8414
131.879 100 80.8413
132.985 100 80.8413
134.077 100 80.8409
135.18 100 80.8414
136.286 100 80.8419
137.382 100 80.8432
138.483 100 80.8455
139.584 100 80.8465
140.684 100 80.8474
141.792 100 80.8556
142.907 100 80.7873
143.994 100 81.0759
144.981 100 80.5486
79.4823 100 81.6952
80.5008 100 82.1519
81.5915 100 81.8997
82.7024 100 81.9557
83.8068 100 81.9473
84.9055 100 81.9453
86.0056 100 81.9436
87.1049 100 81.9411
88.2009 100 81.9401
89.3057 100 81.94
90.4068 100 81.9397
91.4975 100 81.9402
92.6025 100 81.9401
93.7226 100 81.9402
94.8456 100 81.94
95.9684 100 81.9401
97.0912 100 81.9404
98.2139 100 81.9403
99.3366 100 81.9402
100.459 100 81.9402
101.582 100 81.9402
102.705 100 81.9403
103.828 100 81.9403
104.95 100 81.9403
106.073 100 81.9403
107.195 100 81.9403
108.318 100 81.9403
109.44 100 81.9403
110.563 100 81.9403
111.685 100 81.9403
112.807 100 81.9403
113.93 100 81.9403
115.052 100 81.9403
116.175 100 81.9403
117.297 100 81.9403
118.42 100 81.9403
119.542 100 81.9403
120.665 100 81.9403
121.787 100 81.9403
122.91 100 81.9402
124.033 100 81.9402
125.156 100 81.9402
126.279 100 81.9403
127.401 100 81.9404
128.524 100 81.9401
129.647 100 81.94
130.77 100 81.9402
131.89 100 81.9401
132.995 100 81.9402
134.086 100 81.9397
135.187 100 81.94
136.292 100 81.9401
137.388 100 81.9411
138.487 100 81.9436
139.587 100 81.9453
140.686 100 81.9473
141.79 100 81.9557
142.901 100 81.8997
143.992 100 82.1519
145.01 100 81.6952
79.4571 100 82.8459
80.5036 100 83.2122
81.5972 100 83.012
82.7033 100 83.0539
83.8057 100 83.0471
84.9041 100 83.0445
86.0046 100 83.043
87.1046 100 83.0412
88.2013 100 83.0407
89.3069 100 83.0406
90.4079 100 83.0404
91.4992 100 83.0407
92.6054 100 83.0407
93.7256 100 83.0408
94.8486 100 83.0408
95.971 100 83.0408
97.0934 100 83.041
98.2158 100 83.0409
99.3381 100 83.0409
100.461 100 83.0411
101.583 100 83.0374
102.705 100 83.0411
103.828 100 83.041
104.95 100 83.041
106.073 100 83.041
107.195 100 83.041
108.318 100 83.041
109.44 100 83.041
110.563 100 83.041
111.685 100 83.041
112.807 100 83.041
113.93 100 83.041
115.052 100 83.041
116.175 100 83.041
117.297 100 83.041
118.42 100 83.041
119.542 100 83.041
120.665 100 83.041
121.787 100 83.0411
122.909 100 83.0374
124.032 100 83.0411
125.154 100 83.0409
126.277 100 83.0409
127.399 100 83.041
128.521 100 83.0408
129.644 100 83.0408
130.767 100 83.0408
131.887 100 83.0407
132.993 100 83.0407
134.084 100 83.0404
135.185 100 83.0406
136.291 100 83.0407
137.388 100 83.0412
138.488 100 83.043
139.588 100 83.0445
140.687 100 83.0471
141.789 100 83.0539
142.895 100 83.012
143.989 100 83.2122
145.035 100 82.8459
79.4349 100 83.9954
80.5063 100 84.2522
81.5998 100 84.115
82.7025 100 84.1442
83.8034 100 84.1392
84.9016 100 84.1371
86.0029 100 84.1363
87.1036 100 84.1356
88.2008 100 84.1356
89.3067 100 84.1353
90.4072 100 84.135
91.4982 100 84.135
92.6049 100 84.1349
93.7252 100 84.1349
94.848 100 84.1348
95.9705 100 84.1348
97.0929 100 84.1349
98.2154 100 84.1348
99.3379 100 84.1348
100.461 100 84.1357
101.583 100 84.0217
102.704 100 84.1353
103.828 100 84.1305
104.95 100 84.1308
106.073 100 84.13
107.195 100 84.1293
108.318 100 84.1285
109.44 100 84.1278
110.563 100 84.1276
111.685 100 84.1275
112.807 100 84.1275
113.93 100 84.1276
115.052 100 84.1278
116.175 100 84.1285
117.297 100 84.1293
118.42 100 84.13
119.542 100 84.1308
120.665 100 84.1305
121.788 100 84.1353
122.91 100 84.0217
124.031 100 84.1357
125.154 100 84.1348
126.277 100 84.1348
127.399 100 84.1349
128.522 100 84.1348
129.644 100 84.1348
130.767 100 84.1349
131.888 100 84.1349
132.994 100 84.135
134.085 100 84.135
135.186 100 84.1353
136.292 100 84.1356
137.389 100 84.1356
138.49 100 84.1363
139.591 100 84.1371
140.689 100 84.1392
141.79 100 84.1442
142.893 100 84.115
143.986 100 84.2522
145.058 100 83.9954
79.4201 100 85.1402
80.5088 100 85.2839
81.602 100 85.2
82.7019 100 85.2169
83.8019 100 85.2141
84.9003 100 85.2134
86.0019 100 85.2134
87.1025 100 85.2136
88.1998 100 85.214
89.3061 100 85.2141
90.4066 100 85.2141
91.4977 100 85.2143
92.6054 100 85.2144
93.7255 100 85.2144
94.848 100 85.2144
95.9705 100 85.2144
97.093 100 85.2144
98.2154 100 85.2144
99.338 100 85.2143
100.464 100 85.2172
101.583 100 84.9638
102.702 100 85.1937
[...]
POINT_DATA 1600
SCALARS mass double
LOOKUP_TABLE default
1
1
1
1
1
1
1
1
1
1
1
1
1
1
1
1
1
1
1
1
1
1
1
1
1
1
1
1
1
1
1
1
1
1
1
1
1
1
1
1
1
1
1
1
1
1
1
1
1
1
1
1
1
1
1
1
1
1
1
1
1
1
1
1
1
1
1
1
1
1
1
1
1
1
1
1
1
1
1
1
1
1
1
1
1
1
1
1
1
1
1
1
1
1
1
1
1
1
1
1
1
1
1
1
1
1
1
1
1
1
1
1
1
1
1
1
1
1
1
1
1
1
1
1
1
1
1
1
1
1
1
1
1
1
1
1
1
1
1
1
1
1
1
1
1
1
1
1
1
1
1
1
1
1
1
1
1
1
1
1
1
1
1
1
1
1
1
1
1
1
1
1
1
1
1
1
1
1
1
1
1
1
1
1
1
1
1
1
1
1
1
1
1
1
1
1
1
1
1
1
1
1
1
1
1
1
1
1
1
1
1
1
1
1
1
1
1
1
1
1
1
1
1
1
1
1
1
1
1
1
1
1
1
1
1
1
1
1
1
1
1
1
1
1
1
1
1
1
1
1
1
1
1
1
1
1
1
1
1
1
1
1
1
1
1
1
1
1
1
1
1
1
1
1
1
1
1
1
1
1
1
1
1
1
1
1
1
1
1
1
1
1
1
1
1
1
1
1
1
1
1
1
1
1
1
1
1
1
1
1
1
1
1
1
1
1
1
1
1
1
1
1
1
1
1
1
1
1
1
1
1
1
1
1
1
1
1
1
1
1
1
1
1
1
1
1
1
1
1
1
1
1
1
1
1
1
1
1
1
1
1
1
1
1
1
1
1
1
1
1
1
1
1
1
1
1
1
1
1
1
1
1
1
1
1
1
1
1
1
1
1
1
1
1
1
1
1
1
1
1
1
1
1
1
1
1
1
1
1
1
1
1
1
1
1
1
1
1
1
1
1
1
1
1
1
1
1
1
1
1
1
1
1
1
1
1
1
1
1
1
1
1
1
1
1
1
1
1
1
1
1
1
1
1
1
1
1
1
1
1
1
1
1
1
1
1
1
1
1
1
1
1
1
1
1
1
1
1
1
1
1
1
1
1
1
1
1
1
1
1
1
1
1
1
1
1
1
1
1
1
1
1
1
1
1
1
1
1
1
1
1
1
1
1
1
1
1
1
1
1
1
1
1
1
1
1
1
1
1
1
1
1
1
1
1
1
1
1
1
1
1
1
1
1
1
1
1
1
1
1
1
1
1
1
1
1
1
1
1
1
1
1
1
1
1
1
1
1
1
1
1
1
1
1
1
1
1
1
1
1
1
1
1
1
1
1
1
1
1
1
1
1
1
1
1
1
1
1
1
1
1
1
1
1
1
1
1
1
1
1
1
1
1
1
1
1
1
1
1
1
1
1
1
1
1
1
1
1
1
1
1
1
1
1
1
1
1
1
1
1
1
1
1
1
1
1
1
1
1
1
1
1
1
1
1
1
1
1
1
1
1
1
1
1
1
1
1
1
1
1
1
1
1
1
1
1
1
1
1
1
1
1
1
1
1
1
1
1
1
1
1
1
1
1
1
1
1
1
1
1
1
1
1
1
1
1
1
1
1
1
1
1
1
1
1
1
1
1
1
1
1
1
1
1
1
1
1
1
1
1
1
1
1
1
1
1
1
1
1
1
1
1
1
1
1
1
1
1
1
1
1
1
1
1
1
1
1
1
1
1
1
1
1
1
1
1
1
1
1
1
1
1
1
1
1
1
1
1
1
1
1
1
1
1
1
1
1
1
1
1
1
1
1
1
1
1
1
1
1
1
1
1
1
1
1
1
1
1
1
1
1
1
1
1
1
1
1
1
1
1
1
1
1
1
1
1
1
1
1
1
1
1
1
1
1
1
1
1
1
1
1
1
1
1
1
1
1
1
1
1
1
1
1
1
1
1
1
1
1
1
1
1
1
1
1
1
1
1
1
1
1
1
1
1
1
1
1
1
1
1
1
1
1
1
1
1
1
1
1
1
1
1
1
1
1
1
1
1
1
1
1
1
1
1
1
1
1
1
1
1
1
1
1
1
1
1
1
1
1
1
1
1
1
1
1
1
1
1
1
1
1
1
1
1
1
1
1
1
1
1
1
1
1
1
1
1
1
1
1
1
1
1
1
1
1
1
1
1
1
1
1
1
1
1
1
1
1
1
1
1
1
1
1
1
1
1
1
1
1
1
1
1
1
1
1
1
1
1
1
1
1
1
1
1
1
1
1
1
1
1
1
1
1
1
1
1
1
1
1
1
1
1
1
1
1
1
1
1
1
1
1
1
1
1
1
1
1
1
1
1
1
1
1
1
1
1
1
1
1
1
1
1
1
1
1
1
1
1
1
1
1
1
1
1
1
1
1
1
1
1
1
1
1
1
1
1
1
1
1
1
1
1
1
1
1
1
1
1
1
1
1
1
1
1
1
1
1
1
1
1
1
1
1
1
1
1
1
1
1
1
1
1
1
1
1
1
1
1
1
1
1
1
1
1
1
1
1
1
1
1
1
1
1
1
1
1
1
1
1
1
1
1
1
1
1
1
1
1
1
1
1
1
1
1
1
1
1
1
1
1
1
1
1
1
1
1
1
1
1
1
1
1
1
1
1
1
1
1
1
1
1
1
1
1
1
1
1
1
1
1
1
1
1
1
1
1
1
1
1
1
1
1
1
1
1
1
1
1
1
1
1
1
1
1
1
1
1
1
1
1
1
1
1
1
1
1
1
1
1
1
1
1
1
1
1
1
1
1
1
1
1
1
1
1
1
1
1
1
1
1
1
1
1
1
1
1
1
1
1
1
1
1
1
1
1
1
1
1
1
1
1
1
1
1
1
1
1
1
1
1
1
1
1
1
1
1
1
1
1
1
1
1
1
1
1
1
1
1
1
1
1
1
1
1
1
1
1
1
1
1
1
1
1
1
1
1
1
1
1
1
1
1
1
1
1
1
1
1
1
1
1
1
1
1
1
1
1
1
1
1
1
1
1
1
1
1
1
1
1
1
1
1
1
1
1
1
1
1
1
1
1
1
1
1
1
1
1
1
1
1
1
1
1
1
1
1
1
1
1
1
1
1
1
1
1
1
1
1
1
1
1
1
1
1
1
1
1
1
1
1
1
1
1
1
1
1
1
1
1
1
1
1
1
1
1
1
1
1
1
1
1
1
1
1
1
1
1
1
1
1
1
1
1
1
1
1
1
1
1
1
1
1
1
1
1
1
1
1
1
1
1
1
1
1
1
1
1
1
1
1
1
1
1
1
1
1
1
1
1
1
1
1
1
1
1
1
1
1
1
1
1
1
1
1
1
1
1
1
1
1
1
1
1
1
1
1
1
1
1
1
1
1
1
1
1
1
1
1
1
1
1
1
1
1
1
1
1
1
1
1
1
1
1
1
1
1
1
1
1
1
1
1
1
1
1
1
1
1
1
1
1
1
1
1
1
1
1
1
1
1
1
1
1
1
1
1
1
1
1
1
1
1
1
1
1
1
1
1
1
1
1
1
1
1
1
1
1
1
1
1
1
1
1
1
1
1
1
1
1
1
1
1
1
1
1
1
1
1
1
1
1
1
1
1
1
1
1
1
1
1
VECTORS force double
-9.38215 0 -9.38435
22.7464 0 -4.66898
-24.8793 0 0.497787
28.553 0 -12.5955
10.1065 0 5.72522
-5.2607 0 9.66779
-7.33044 0 8.83523
-6.93457 0 6.68124
-6.44746 0 4.15588
-5.99562 0 1.58505
-3.13041 0 1.13579
-0.177422 0 0.953511
0.187839 0 0.49994
-0.195701 0 0.264789
0.150749 0 0.136425
0.386974 0 0.113052
0.358102 0 0.0612354
0.314182 0 0.095815
0.258855 0 0.100733
0.0485445 0 0.018986
0.0300796 0 0.0337209
0.0227219 0 0.0925555
0.0186206 0 0.102192
0.0132592 0 0.0968195
0.00782912 0 0.0761934
0.00242247 0 0.0824077
0.000447941 0 0.0817095
5.69268e-05 0 0.0814504
2.89563e-06 0 0.0814398
5.60665e-08 0 0.0814386
-5.61054e-08 0 0.0814386
-2.89552e-06 0 0.0814398
-5.69269e-05 0 0.0814504
-0.000447941 0 0.0817095
-0.00242247 0 0.0824077
-0.00782912 0 0.0761934
-0.0132592 0 0.0968195
-0.0186206 0 0.102192
-0.0227219 0 0.0925555
-0.0300796 0 0.0337209
-0.0485445 0 0.018986
-0.258855 0 0.100733
-0.314182 0 0.095815
-0.358102 0 0.0612354
-0.386974 0 0.113052
-0.150749 0 0.136425
0.195701 0 0.264789
-0.187839 0 0.49994
0.177422 0 0.953511
3.13041 0 1.13579
5.99562 0 1.58505
6.44746 0 4.15588
6.93457 0 6.68124
7.33044 0 8.83523
5.2607 0 9.66779
-10.1065 0 5.72522
-28.553 0 -12.5955
24.8793 0 0.497787
-22.7464 0 -4.66898
9.38215 0 -9.38435
-4.67096 0 22.7549
-4.94951 0 -4.91855
-9.38681 0 21.7299
-1.8043 0 10.0942
2.0104 0 0.573102
4.27881 0 -1.34156
8.84512 0 -1.06144
9.03177 0 -1.43258
3.63558 0 -1.29521
16.7001 0 -0.145121
-2.27886 0 -0.153427
7.38789 0 0.0364777
14.0367 0 0.128248
1.20237 0 0.00606696
-1.14902 0 -0.0958136
-1.07154 0 -0.104619
-0.932143 0 -0.0681381
-0.955923 0 -0.164723
-0.768211 0 -0.202064
-0.61248 0 -0.256971
-0.51075 0 -0.303829
-0.243766 0 -0.261143
-0.187175 0 -0.235985
-0.223026 0 -0.207077
-0.23863 0 -0.153796
-0.0455397 0 -0.0694775
-0.0077671 0 -0.0629457
-0.000984917 0 -0.0801993
-9.10542e-05 0 -0.0812575
-7.96035e-06 0 -0.0812631
7.96029e-06 0 -0.0812631
9.10543e-05 0 -0.0812575
0.000984917 0 -0.0801993
0.0077671 0 -0.0629457
0.0455397 0 -0.0694775
0.23863 0 -0.153796
0.223026 0 -0.207077
0.187175 0 -0.235985
0.243766 0 -0.261143
0.51075 0 -0.303829
0.61248 0 -0.256971
0.768211 0 -0.202064
0.955923 0 -0.164723
0.932143 0 -0.0681381
1.07154 0 -0.104619
1.14902 0 -0.0958136
-1.20237 0 0.00606696
-14.0367 0 0.128248
-7.38789 0 0.0364777
2.27886 0 -0.153427
-16.7001 0 -0.145121
-3.63558 0 -1.29521
-9.03177 0 -1.43258
-8.84512 0 -1.06144
-4.27881 0 -1.34156
-2.0104 0 0.573102
1.8043 0 10.0942
9.38681 0 21.7299
4.94951 0 -4.91855
4.67096 0 22.7549
0.57243 0 -24.843
21.8939 0 -9.3078
0.799056 0 0.726823
-6.93168 0 -4.61721
-7.28577 0 -5.93296
-4.72599 0 -5.06817
-5.54436 0 -4.28149
-5.00716 0 -2.61269
-0.343158 0 -1.50474
-2.92791 0 -0.49617
-4.89241 0 0.141888
5.18759 0 0.372852
5.30103 0 0.185346
1.65184 0 0.0333534
1.44851 0 0.180382
1.53308 0 0.194403
1.38677 0 0.187215
1.06068 0 0.21213
0.796735 0 0.232068
0.693331 0 0.284486
0.543535 0 0.296733
0.522191 0 0.328396
0.567426 0 0.249594
0.449285 0 0.198595
0.386029 0 0.157444
0.366421 0 0.147579
0.330547 0 0.141243
0.0274184 0 0.00367497
0.00155645 0 0.00407267
0.000105381 0 0.0101149
-0.000105381 0 0.0101149
-0.00155645 0 0.00407267
-0.0274184 0 0.00367497
-0.330547 0 0.141243
-0.366421 0 0.147579
-0.386029 0 0.157444
-0.449285 0 0.198595
-0.567426 0 0.249594
-0.522191 0 0.328396
-0.543535 0 0.296733
-0.693331 0 0.284486
-0.796735 0 0.232068
-1.06068 0 0.21213
-1.38677 0 0.187215
-1.53308 0 0.194403
-1.44851 0 0.180382
-1.65184 0 0.0333534
-5.30103 0 0.185346
-5.18759 0 0.372852
4.89241 0 0.141888
2.92791 0 -0.49617
0.343158 0 -1.50474
5.00716 0 -2.61269
5.54436 0 -4.28149
4.72599 0 -5.06817
7.28577 0 -5.93296
6.93168 0 -4.61721
-0.799056 0 0.726823
-21.8939 0 -9.3078
-0.57243 0 -24.843
-12.5832 0 28.6383
10.1999 0 -1.59384
-4.81646 0 -7.2037
-2.37781 0 -2.03661
-2.10069 0 -3.08745
0.69564 0 -2.26362
0.324924 0 -1.08748
-1.6632 0 -0.264539
3.04348 0 0.0331614
-0.409258 0 0.493111
-6.31688 0 0.400295
5.21371 0 0.281029
3.83951 0 0.104898
-0.566865 0 0.150641
-1.41251 0 0.0320181
-1.28734 0 -0.0304974
-1.0627 0 -0.0739147
-0.825461 0 -0.134402
-0.783966 0 -0.181252
-0.701313 0 -0.198139
-0.568628 0 -0.16877
-0.619726 0 -0.288194
-0.275743 0 -0.160608
-0.210826 0 -0.198192
-0.186361 0 -0.191044
-0.181279 0 -0.183272
-0.178922 0 -0.182237
-0.177784 0 -0.199144
-0.168159 0 -0.198332
-0.00792531 0 -0.124338
0.00792531 0 -0.124338
0.168159 0 -0.198332
0.177784 0 -0.199144
0.178922 0 -0.182237
0.181279 0 -0.183272
0.186361 0 -0.191044
0.210826 0 -0.198192
0.275743 0 -0.160608
0.619726 0 -0.288194
0.568628 0 -0.16877
0.701313 0 -0.198139
0.783966 0 -0.181252
0.825461 0 -0.134402
1.0627 0 -0.0739147
1.28734 0 -0.0304974
1.41251 0 0.0320181
0.566865 0 0.150641
-3.83951 0 0.104898
-5.21371 0 0.281029
6.31688 0 0.400295
0.409258 0 0.493111
-3.04348 0 0.0331614
1.6632 0 -0.264539
-0.324924 0 -1.08748
-0.69564 0 -2.26362
2.10069 0 -3.08745
2.37781 0 -2.03661
4.81646 0 -7.2037
-10.1999 0 -1.59384
12.5832 0 28.6383
5.78831 0 10.2848
0.783626 0 1.73831
-6.00908 0 -7.68876
-3.1316 0 -1.79848
-2.43093 0 -2.51932
0.595799 0 -1.99409
-0.269739 0 -1.56281
-1.24582 0 -1.14426
3.9301 0 -0.758366
-0.78666 0 -0.642339
-3.72449 0 -0.805672
6.24601 0 -0.918094
5.47645 0 -0.829812
1.14089 0 -0.734802
0.800376 0 -0.725999
0.896543 0 -0.629948
0.806597 0 -0.49702
0.755479 0 -0.3763
0.685193 0 -0.263362
0.578778 0 -0.172731
0.491214 0 -0.18261
0.411855 0 -0.0958286
0.28309 0 -0.0894374
0.46275 0 0.0274043
0.0280201 0 0.0297689
0.00463857 0 0.0361675
0.000842145 0 0.0372024
0.00151288 0 0.035976
0.000679448 0 0.0362147
0.000369563 0 0.0423949
-0.000369563 0 0.0423949
-0.000679448 0 0.0362147
-0.00151288 0 0.035976
-0.000842145 0 0.0372024
-0.00463857 0 0.0361675
-0.0280201 0 0.0297689
-0.46275 0 0.0274043
-0.28309 0 -0.0894374
-0.411855 0 -0.0958286
-0.491214 0 -0.18261
-0.578778 0 -0.172731
-0.685193 0 -0.263362
-0.755479 0 -0.3763
-0.806597 0 -0.49702
-0.896543 0 -0.629948
-0.800376 0 -0.725999
-1.14089 0 -0.734802
-5.47645 0 -0.829812
-6.24601 0 -0.918094
3.72449 0 -0.805672
0.78666 0 -0.642339
-3.9301 0 -0.758366
1.24582 0 -1.14426
0.269739 0 -1.56281
-0.595799 0 -1.99409
2.43093 0 -2.51932
3.1316 0 -1.79848
6.00908 0 -7.68876
-0.783626 0 1.73831
-5.78831 0 10.2848
9.77066 0 -5.03787
-1.09365 0 -0.7156
-5.21631 0 -5.44136
-2.46355 0 0.636802
-2.06829 0 -0.0263011
0.553867 0 0.239106
-0.395602 0 0.560118
-1.56276 0 0.847861
3.45754 0 0.98084
-1.66836 0 0.831713
-4.86112 0 0.761342
5.84128 0 0.721096
4.2064 0 0.717175
0.081969 0 0.724036
-0.670658 0 0.749945
-0.62184 0 0.733109
-0.567712 0 0.673351
-0.499512 0 0.65084
-0.423971 0 0.633449
-0.31604 0 0.689501
-0.47277 0 -0.796387
-0.485536 0 0.681285
-0.204858 0 0.440009
-0.0172838 0 0.310273
0.00798506 0 0.310151
-0.01345 0 0.293305
-0.00161429 0 0.289942
0.000112924 0 0.289293
8.29857e-05 0 0.289143
4.25454e-05 0 0.289109
-4.25455e-05 0 0.289109
-8.29856e-05 0 0.289143
-0.000112924 0 0.289293
0.00161429 0 0.289942
0.01345 0 0.293305
-0.00798506 0 0.310151
0.0172838 0 0.310273
0.204858 0 0.440009
0.485536 0 0.681285
0.47277 0 -0.796387
0.31604 0 0.689501
0.423971 0 0.633449
0.499512 0 0.65084
0.567712 0 0.673351
0.62184 0 0.733109
0.670658 0 0.749945
-0.081969 0 0.724036
-4.2064 0 0.717175
-5.84128 0 0.721096
4.86112 0 0.761342
1.66836 0 0.831713
-3.45754 0 0.98084
1.56276 0 0.847861
0.395602 0 0.560118
-0.553867 0 0.239106
2.06829 0 -0.0263011
2.46355 0 0.636802
5.21631 0 -5.44136
1.09365 0 -0.7156
-9.77066 0 -5.03787
8.47127 0 -7.16727
-0.214834 0 -9.73025
-4.16088 0 -8.09991
-1.25766 0 -2.3628
-1.62092 0 -3.35929
0.947596 0 -2.86281
-0.255315 0 -2.62336
-1.40197 0 -2.43318
3.59655 0 -2.43934
-1.73428 0 -2.44573
-4.21654 0 -2.55603
6.30808 0 -2.64646
4.50141 0 -2.74205
0.837758 0 -2.73945
0.0865422 0 -2.78283
0.235908 0 -2.76539
0.24194 0 -2.76922
0.192117 0 -2.79654
0.282589 0 -2.86843
1.59986 0 -1.54936
0.210165 0 -150.812
-1.29651 0 -1.52003
0.0389364 0 -4.62713
0.0134276 0 -4.39347
0.0244315 0 -4.7739
0.022829 0 -5.10638
0.0197901 0 -5.48776
0.0119809 0 -5.78839
0.00484372 0 -5.90699
0.00137039 0 -5.95506
-0.00137039 0 -5.95506
-0.00484372 0 -5.90699
-0.0119809 0 -5.78839
-0.0197901 0 -5.48776
-0.022829 0 -5.10638
-0.0244315 0 -4.7739
-0.0134276 0 -4.39347
-0.0389364 0 -4.62713
1.29651 0 -1.52003
-0.210165 0 -150.812
-1.59986 0 -1.54936
-0.282589 0 -2.86843
-0.192117 0 -2.79654
-0.24194 0 -2.76922
-0.235908 0 -2.76539
-0.0865422 0 -2.78283
-0.837758 0 -2.73945
-4.50141 0 -2.74205
-6.30808 0 -2.64646
4.21654 0 -2.55603
1.73428 0 -2.44573
-3.59655 0 -2.43934
1.40197 0 -2.43318
0.255315 0 -2.62336
-0.947596 0 -2.86281
1.62092 0 -3.35929
1.25766 0 -2.3628
4.16088 0 -8.09991
0.214834 0 -9.73025
-8.47127 0 -7.16727
4.67821 0 -7.00356
0.40565 0 -1.55512
-1.51404 0 -12.1769
-0.619005 0 -9.0176
-1.19303 0 -9.56216
1.19532 0 -8.9455
-0.269619 0 -8.71274
-1.4908 0 -8.68521
3.48771 0 -8.62677
-2.09821 0 -8.32482
-4.21774 0 -8.05054
6.575 0 -7.88363
4.24208 0 -7.7143
0.609544 0 -7.62986
-0.0877269 0 -7.53602
-0.0265535 0 -7.52329
-0.0113501 0 -7.50195
-0.00273151 0 -7.51856
0.220794 0 -7.60239
4.68492 0 -4.73013
0.376734 0 -181.071
-3.3392 0 -19.9791
0.667598 0 -150.909
0.0988327 0 -142.226
0.200676 0 -166.375
0.180234 0 -188.122
0.148192 0 -210.498
0.086229 0 -227.475
0.0342977 0 -234.224
0.00955971 0 -236.914
-0.00955971 0 -236.914
-0.0342977 0 -234.224
-0.086229 0 -227.475
-0.148192 0 -210.498
-0.180234 0 -188.122
-0.200676 0 -166.375
-0.0988327 0 -142.226
-0.667598 0 -150.909
3.3392 0 -19.9791
-0.376734 0 -181.071
-4.68492 0 -4.73013
-0.220794 0 -7.60239
0.00273152 0 -7.51856
0.0113501 0 -7.50195
0.0265535 0 -7.52329
0.0877268 0 -7.53602
-0.609544 0 -7.62986
-4.24208 0 -7.7143
-6.575 0 -7.88363
4.21774 0 -8.05054
2.09821 0 -8.32482
-3.48771 0 -8.62677
1.4908 0 -8.68521
0.269619 0 -8.71274
-1.19532 0 -8.9455
1.19303 0 -9.56216
0.619005 0 -9.0176
1.51404 0 -12.1769
-0.40565 0 -1.55512
-4.67821 0 -7.00356
1.65797 0 -6.17256
0.671099 0 10.6446
0.21883 0 -1.27736
0.0828261 0 2.61331
-0.772981 0 1.8696
1.20457 0 1.35816
-0.474083 0 0.873
-1.41416 0 0.269224
3.55092 0 -0.134898
-2.25348 0 -0.400095
-4.13277 0 -0.530113
6.82658 0 -0.594273
3.90019 0 -0.715846
0.603102 0 -0.711942
-0.0149353 0 -0.75367
-0.000210336 0 -0.750083
0.00400069 0 -0.728405
-0.145031 0 -0.860637
0.710292 0 -0.857267
7.56868 0 1.92292
0.679455 0 306.862
-1.85889 0 -349.768
-0.723483 0 -135.179
0.108951 0 -149.036
0.031016 0 -94.9702
0.0367573 0 -49.7061
0.0238143 0 -5.87217
0.0171045 0 25.4611
0.0105632 0 37.5369
0.00270258 0 42.2879
-0.00270258 0 42.2879
-0.0105632 0 37.5369
-0.0171045 0 25.4611
-0.0238143 0 -5.87217
-0.0367573 0 -49.7061
-0.031016 0 -94.9702
-0.108951 0 -149.036
0.723483 0 -135.179
1.85889 0 -349.768
-0.679455 0 306.862
-7.56868 0 1.92292
-0.710292 0 -0.857267
0.145031 0 -0.860637
-0.00400069 0 -0.728405
0.000210337 0 -0.750083
0.0149353 0 -0.75367
-0.603102 0 -0.711942
-3.90019 0 -0.715846
-6.82658 0 -0.594273
4.13277 0 -0.530113
2.25348 0 -0.400095
-3.55092 0 -0.134898
1.41416 0 0.269224
0.474083 0 0.873
-1.20457 0 1.35816
0.772981 0 1.8696
-0.0828261 0 2.61331
-0.21883 0 -1.27736
-0.671099 0 10.6446
-1.65797 0 -6.17256
0.373796 0 -2.82147
0.463195 0 0.545859
0.372725 0 4.28428
0.981133 0 6.99486
-0.447248 0 6.20498
1.14222 0 5.97291
-0.49619 0 5.9629
-1.35455 0 5.96922
3.65938 0 6.00137
-2.18336 0 5.88781
-4.07583 0 5.71323
6.99711 0 5.54083
3.6455 0 5.42857
0.545047 0 5.35083
0.0427103 0 5.34177
0.00554551 0 5.33935
-0.00522035 0 5.33805
-0.0179955 0 5.20292
1.90797 0 5.09155
7.60541 0 9.57475
-3.73334 0 -181.363
1.07754 0 310.189
-2.79606 0 268.28
0.014922 0 275.286
-0.078988 0 244.393
-0.0259766 0 218.259
-0.0160378 0 193.11
0.00764827 0 175.807
0.0165147 0 168.539
0.00341737 0 165.845
-0.00341737 0 165.845
-0.0165147 0 168.539
-0.00764827 0 175.807
0.0160378 0 193.11
0.0259766 0 218.259
0.078988 0 244.393
-0.014922 0 275.286
2.79606 0 268.28
-1.07754 0 310.189
3.73334 0 -181.363
-7.60541 0 9.57475
-1.90797 0 5.09155
0.0179955 0 5.20292
0.00522035 0 5.33805
-0.00554551 0 5.33935
-0.0427103 0 5.34177
-0.545047 0 5.35083
-3.6455 0 5.42857
-6.99711 0 5.54083
4.07583 0 5.71323
2.18336 0 5.88781
-3.65938 0 6.00137
1.35455 0 5.96922
0.49619 0 5.9629
-1.14222 0 5.97291
0.447248 0 6.20498
-0.981133 0 6.99486
-0.372725 0 4.28428
-0.463195 0 0.545859
-0.373796 0 -2.82147
0.373796 0 2.82147
0.463195 0 -0.545859
0.372725 0 -4.28428
0.981133 0 -6.99486
-0.447248 0 -6.20498
1.14222 0 -5.97291
-0.49619 0 -5.9629
-1.35455 0 -5.96922
3.65938 0 -6.00137
-2.18336 0 -5.88781
-4.07584 0 -5.71323
6.99709 0 -5.54095
3.64553 0 -5.42697
0.545312 0 -5.3516
0.0431746 0 -5.34982
0.00317188 0 -5.32062
-0.0373911 0 -5.39918
0.180051 0 -5.42916
3.08392 0 -6.13801
10.2055 0 -2.2971
-8.15497 0 -43.7753
-1.97115 0 60.761
-0.776375 0 -76.052
0.272966 0 -90.3978
0.619396 0 -153.729
0.561625 0 -237.831
0.38989 0 -315.742
0.218688 0 -361.268
0.103872 0 -383.851
0.0279829 0 -391.454
-0.0279829 0 -391.454
-0.103872 0 -383.851
-0.218688 0 -361.268
-0.38989 0 -315.742
-0.561625 0 -237.831
-0.619396 0 -153.729
-0.272966 0 -90.3978
0.776375 0 -76.052
1.97115 0 60.761
8.15497 0 -43.7753
-10.2055 0 -2.2971
-3.08392 0 -6.13801
-0.180051 0 -5.42916
0.0373911 0 -5.39918
-0.00317188 0 -5.32062
-0.0431746 0 -5.34982
-0.545312 0 -5.3516
-3.64553 0 -5.42697
-6.99709 0 -5.54095
4.07584 0 -5.71323
2.18336 0 -5.88781
-3.65938 0 -6.00137
1.35455 0 -5.96922
0.49619 0 -5.9629
-1.14222 0 -5.97291
0.447248 0 -6.20498
-0.981133 0 -6.99486
-0.372725 0 -4.28428
-0.463195 0 -0.545859
-0.373796 0 2.82147
1.65797 0 6.17256
0.671099 0 -10.6446
0.21883 0 1.27736
0.0828261 0 -2.61331
-0.772981 0 -1.8696
1.20457 0 -1.35816
-0.474083 0 -0.873
-1.41416 0 -0.269224
3.55092 0 0.134898
-2.25348 0 0.400089
-4.13277 0 0.530101
6.8266 0 0.594057
3.89986 0 0.718884
0.603451 0 0.712271
-0.0248554 0 0.727041
-0.0444015 0 0.787423
0.0223928 0 0.679049
0.790608 0 0.56784
4.40691 0 -0.403679
8.62676 0 1.84568
-7.12751 0 212.539
-2.23489 0 -164.773
0.0609687 0 -199.101
-0.104728 0 -157.907
0.133526 0 -20.5484
0.0149223 0 128.032
0.0112382 0 244.738
0.0419378 0 307.253
0.0445879 0 337.034
0.0227549 0 345.844
-0.0227549 0 345.844
-0.0445879 0 337.034
-0.0419378 0 307.253
-0.0112382 0 244.738
-0.0149223 0 128.032
-0.133526 0 -20.5484
0.104728 0 -157.907
-0.0609687 0 -199.101
2.23489 0 -164.773
7.12751 0 212.539
-8.62676 0 1.84568
-4.40691 0 -0.403679
-0.790608 0 0.56784
-0.0223928 0 0.679049
0.0444015 0 0.787423
0.0248554 0 0.727041
-0.603451 0 0.712271
-3.89986 0 0.718884
-6.8266 0 0.594057
4.13277 0 0.530101
2.25348 0 0.400089
-3.55092 0 0.134898
1.41416 0 -0.269224
0.474083 0 -0.873
-1.20457 0 -1.35816
0.772981 0 -1.8696
-0.0828261 0 -2.61331
-0.21883 0 1.27736
-0.671099 0 -10.6446
-1.65797 0 6.17256
4.67821 0 7.00356
0.40565 0 1.55512
-1.51404 0 12.1769
-0.619005 0 9.0176
-1.19303 0 9.56216
1.19532 0 8.9455
-0.269619 0 8.71274
-1.4908 0 8.68521
3.48771 0 8.62677
-2.09819 0 8.32479
-4.21761 0 8.05049
6.57481 0 7.88368
4.24156 0 7.71331
0.614032 0 7.63231
-0.0950511 0 7.50887
-0.0819988 0 7.5178
0.325058 0 7.48096
1.93427 0 7.48801
5.46512 0 7.16025
2.62262 0 6.68247
-5.54236 0 3.15749
0.0813411 0 56.7808
-3.83064 0 272.08
-1.36646 0 251.683
-0.669944 0 182.013
-0.109101 0 120.36
0.498573 0 64.4777
0.608134 0 3.02972
0.412751 0 -45.1988
0.162359 0 -77.8277
-0.162359 0 -77.8277
-0.412751 0 -45.1988
-0.608134 0 3.02972
-0.498573 0 64.4777
0.109101 0 120.36
0.669944 0 182.013
1.36646 0 251.683
3.83064 0 272.08
-0.0813411 0 56.7808
5.54236 0 3.15749
-2.62262 0 6.68247
-5.46512 0 7.16025
-1.93427 0 7.48801
-0.325058 0 7.48096
0.0819988 0 7.5178
0.0950511 0 7.50887
-0.614032 0 7.63231
-4.24156 0 7.71331
-6.57481 0 7.88368
4.21761 0 8.05049
2.09819 0 8.32479
-3.48771 0 8.62677
1.4908 0 8.68521
0.269619 0 8.71274
-1.19532 0 8.9455
1.19303 0 9.56216
0.619005 0 9.0176
1.51404 0 12.1769
-0.40565 0 1.55512
-4.67821 0 7.00356
8.47127 0 7.16727
-0.214834 0 9.73025
-4.16088 0 8.09991
-1.25766 0 2.3628
-1.62092 0 3.35929
0.947595 0 2.86281
-0.255319 0 2.62336
-1.402 0 2.43318
3.59645 0 2.43931
-1.7346 0 2.44564
-4.21722 0 2.5559
6.30769 0 2.64868
4.50233 0 2.73739
0.831784 0 2.74038
-0.00551541 0 2.79538
-0.000570921 0 2.65711
0.923229 0 2.63197
3.01714 0 2.4541
5.42728 0 2.39879
-8.8012 0 -3.99621
-2.11201 0 -2.73609
-2.45915 0 123.968
-1.88161 0 13.6997
-1.34949 0 12.4718
0.551567 0 5.10386
1.96624 0 -45.8614
0.152877 0 -276.975
-0.573312 0 -249.264
-0.0739324 0 -157.918
0.0533811 0 -105.858
-0.0533811 0 -105.858
0.0739324 0 -157.918
0.573312 0 -249.264
-0.152877 0 -276.975
-1.96624 0 -45.8614
-0.551567 0 5.10386
1.34949 0 12.4718
1.88161 0 13.6997
2.45915 0 123.968
2.11201 0 -2.73609
8.8012 0 -3.99621
-5.42728 0 2.39879
-3.01714 0 2.4541
-0.923229 0 2.63197
0.000570921 0 2.65711
0.00551541 0 2.79538
-0.831784 0 2.74038