# vtk DataFile Version 3.0
SiWiRVisFile
ASCII
DATASET UNSTRUCTURED_GRID
POINTS 1600 DOUBLE
76.0433 100 71.5895
74.0292 100 71.9073
74.9106 100 72.4448
76.748 100 72.4161
78.3739 100 72.7898
78.8846 100 73.741
79.8115 100 72.9323
80.9641 100 73.5991
81.9298 100 73.9714
81.4237 100 72.174
93.1933 100 62.6094
91.9983 100 62.9738
92.7517 100 63.7171
90.9052 100 62.9216
81.4681 100 64.1571
89.516 100 56.3849
91.4527 100 55.2307
90.1358 100 52.8762
84.6891 100 44.622
93.8376 100 49.2119
108.227 100 23.8251
108.554 100 22.4778
107.293 100 21.8163
107.599 100 20.7617
106.562 100 23.8613
111.068 100 23.857
110.69 100 14.6456
115.162 100 15.0232
110.262 100 18.2023
110.458 100 17.0547
111.838 100 16.4135
113.244 100 17.0426
110.874 100 15.7409
114.041 100 15.7798
114.586 100 21.0255
117.368 100 24.6195
116.328 100 19.9034
115.75 100 22.8041
114.557 100 23.1498
115.417 100 23.8938
133.667 100 50.7853
139.803 100 44.622
131.641 100 52.9246
133.596 100 53.9405
135.298 100 52.9503
135.176 100 66.5496
133.85 100 62.8195
134.043 100 65.3967
132.636 100 62.6334
132.88 100 63.6618
142.262 100 72.6357
141.329 100 74.1948
142.38 100 73.6768
143.668 100 73.0363
145.723 100 73.3669
146.862 100 73.0182
147.973 100 72.5027
149.849 100 72.6035
151.463 100 71.5405
148.954 100 71.9118
72.8385 100 72.6202
73.9201 100 72.9824
75.7962 100 73.1128
76.7901 100 73.5861
77.9824 100 74.2183
79.947 100 74.0836
81.0733 100 74.7067
82.1519 100 75.0592
83.2244 100 74.4091
84.3596 100 75.1829
85.4317 100 74.5909
92.356 100 61.9516
91.4804 100 63.9522
91.3753 100 60.2819
90.7207 100 55.9809
91.3573 100 61.384
91.4878 100 54.0955
91.1343 100 53.0031
92.3101 100 53.1284
96.0652 100 50.4938
107.184 100 22.9996
95.2264 100 31.6166
106.964 100 36.5181
108.748 100 21.2319
109.695 100 22.0011
111.575 100 22.9086
112.552 100 21.7489
111.459 100 21.729
105.883 100 9.97875
111.251 100 17.7644
112.302 100 17.5612
119.137 100 10.0719
113.637 100 19.4502
115.457 100 19.2355
114.962 100 21.952
115.677 100 20.8228
114.449 100 18.7843
119.729 100 37.1674
129.294 100 31.5748
116.738 100 23.3275
127.748 100 50.1318
129.549 100 50.4471
132.587 100 50.8087
134.862 100 54.0303
133.494 100 61.7956
133.988 100 54.9562
132.03 100 59.0887
133.864 100 64.2519
131.413 100 62.711
139.179 100 74.8064
140.272 100 74.5396
141.156 100 75.2611
142.258 100 74.7658
143.605 100 74.1553
144.708 100 73.7668
146.598 100 74.0298
147.786 100 73.6679
148.851 100 73.0936
150.774 100 73.2636
151.989 100 72.7859
72.9125 100 73.8208
73.947 100 74.1986
74.8192 100 73.5783
75.801 100 74.1871
76.9198 100 74.7608
79.066 100 74.745
80.0674 100 75.23
81.2178 100 75.7801
82.2807 100 76.1122
83.3018 100 75.5504
85.4584 100 75.799
84.5444 100 77.4392
86.9322 100 76.7343
92.4159 100 60.6696
90.2855 100 59.9339
92.6323 100 57.3236
92.3153 100 54.7373
93.0594 100 53.9127
93.7811 100 51.9923
94.9225 100 49.692
96.122 100 49.4903
104.864 100 37.1536
105.937 100 36.7867
106.879 100 38.1635
95.361 100 34.4037
107.859 100 37.5786
107.419 100 35.5278
106.321 100 35.294
111.728 100 18.7576
112.495 100 19.9306
112.757 100 18.8306
113.676 100 18.0519
122.079 100 37.0849
116.524 100 33.9111
118.598 100 36.831
120.771 100 37.27
118.715 100 37.9112
119.77 100 38.2727
121.033 100 38.3539
126.722 100 49.4725
133.588 100 51.9314
130.892 100 52.1396
133.93 100 52.861
132.718 100 53.2241
132.643 100 56.2574
132.507 100 57.7069
132.435 100 61.6185
138.231 100 75.7997
139.344 100 76.3289
140.065 100 75.5652
140.898 100 76.3963
141.989 100 75.899
143.45 100 75.189
144.556 100 74.9012
145.592 100 74.4922
147.47 100 74.6955
148.763 100 74.2777
149.767 100 73.6766
150.702 100 74.3463
151.893 100 73.886
72.836 100 74.8981
73.9041 100 75.3234
74.8407 100 74.7587
75.9173 100 75.2817
77.9094 100 75.2934
78.9279 100 75.9427
80.2346 100 76.3039
81.197 100 76.8197
83.4159 100 76.8599
84.3517 100 76.2302
84.6101 100 78.5262
85.6843 100 76.8711
86.9632 100 75.6691
92.2653 100 59.4871
91.1688 100 59.1805
90.3636 100 58.1173
92.9196 100 55.9242
91.8509 100 56.3755
93.7466 100 54.6773
93.7901 100 53.0811
93.878 100 50.3133
97.1387 100 50.0057
105.151 100 36.0024
104.344 100 41.253
105.589 100 37.9687
106.133 100 39.1326
108.314 100 39.9693
109.863 100 39.3871
108.033 100 36.4354
113.522 100 21.0786
114.534 100 20.0073
113.256 100 32.8969
115.518 100 39.1635
116.734 100 38.2163
117.752 100 38.6831
119.968 100 39.4331
118.925 100 38.9427
119.332 100 36.0493
126.659 100 50.6015
129.563 100 52.0816
130.189 100 52.9284
132.867 100 55.0769
131.796 100 55.3905
131.636 100 56.5594
131.351 100 57.7673
132.426 100 60.4714
131.452 100 61.1281
137.995 100 74.7113
139.066 100 77.3572
140.084 100 77.4607
141.183 100 77.4553
142.168 100 76.9394
143.318 100 76.4064
144.393 100 76.0513
145.407 100 75.6957
146.423 100 75.1386
148.677 100 75.4366
149.715 100 74.9865
150.677 100 75.5442
151.559 100 74.9628
73.067 100 76.0229
74.1448 100 76.4234
75.1206 100 75.9374
76.8911 100 75.8292
77.847 100 76.3892
79.2622 100 76.9509
80.3188 100 77.441
81.3046 100 77.9235
82.1883 100 77.2641
83.4176 100 78.0287
84.4039 100 79.778
87.7122 100 77.7576
87.9239 100 76.2497
94.8073 100 56.8321
91.6324 100 57.9134
90.7561 100 57.0457
95.1732 100 55.7701
94.85 100 54.7017
94.7482 100 52.4601
95.7974 100 52.6941
95.2239 100 51.5242
102.47 100 46.32
104.683 100 39.9672
107.515 100 40.9377
107.161 100 39.5909
108.514 100 41.3402
109.322 100 40.3376
110.824 100 40.2569
107.949 100 38.8595
110.286 100 23.1277
109.251 100 23.6375
116.67 100 37.1803
113.395 100 38.7124
114.781 100 39.9268
116.582 100 39.5455
117.638 100 37.5669
117.594 100 39.9169
118.01 100 41.2193
123.514 100 46.4778
128.814 100 49.6581
128.786 100 51.2454
128.943 100 53.1922
132.113 100 54.2498
130.679 100 55.5019
129.782 100 56.1877
130.61 100 59.9686
131.007 100 58.9965
138.152 100 76.8841
138.478 100 78.6324
140.113 100 79.7626
140.829 100 78.5398
142.075 100 78.0727
143.027 100 77.6111
144.263 100 77.1202
145.512 100 76.8129
146.576 100 76.2167
147.625 100 75.8379
149.651 100 76.1001
150.555 100 76.7067
151.608 100 76.2144
73.1125 100 77.1811
74.009 100 77.7528
75.101 100 77.1966
76.0679 100 76.6304
77.0773 100 77.0751
78.0325 100 77.688
79.2808 100 78.0405
80.2199 100 78.6114
81.3379 100 79.0493
82.3997 100 78.4376
83.3467 100 79.1121
85.5465 100 78.0395
87.1511 100 78.6344
86.8544 100 74.5569
89.1906 100 75.4837
93.7022 100 56.955
95.8659 100 56.71
97.1365 100 56.5103
96.3632 100 55.6701
95.163 100 53.5617
96.3388 100 51.7077
98.3536 100 50.3381
102.722 100 45.1427
104.066 100 43.5435
105.706 100 40.2958
106.5 100 41.673
108.107 100 43.5855
109.623 100 41.3447
112.083 100 39.4405
111.128 100 38.974
114.562 100 38.8281
113.146 100 39.737
115.798 100 40.3132
115.216 100 41.2759
116.766 100 40.7259
118.64 100 40.0464
119.186 100 41.0806
123.237 100 45.4031
126.182 100 51.5882
127.678 100 51.2658
128.145 100 52.2479
130.939 100 54.2956
128.693 100 56.3543
129.289 100 57.2512
130.47 100 57.0507
137.048 100 75.4769
140.546 100 70.5791
137.891 100 79.4466
139.661 100 78.5868
141.931 100 79.1105
142.985 100 78.7083
144.008 100 79.3702
143.958 100 78.1993
145.444 100 78.0181
146.476 100 77.4334
147.451 100 76.8662
148.509 100 76.5547
149.44 100 77.1089
150.468 100 77.8934
151.57 100 77.3934
72.1823 100 77.7926
73.076 100 78.3858
75.2496 100 78.2837
76.1305 100 77.7332
77.0222 100 78.2265
77.3048 100 80.4343
78.9218 100 79.435
80.4913 100 79.8508
81.6273 100 80.2974
82.3947 100 79.5851
86.2748 100 80.1585
86.5302 100 77.6686
88.5977 100 79.9375
88.0424 100 75.1442
94.4494 100 57.9302
94.1009 100 55.6734
95.5743 100 57.8029
98.1329 100 56.8007
95.9405 100 54.3589
96.9803 100 53.287
97.1822 100 51.0268
100.034 100 51.7541
103.927 100 45.6274
105.412 100 41.5507
110.31 100 44.3425
108.712 100 42.421
104.943 100 46.2779
110.151 100 42.4266
104.767 100 47.5459
106.169 100 45.9463
119.654 100 47.626
117.311 100 47.0882
114.924 100 42.3717
116.101 100 46.3827
117.11 100 43.712
116.284 100 41.6875
117.367 100 41.9653
121.331 100 46.6175
123.152 100 47.9462
126.813 100 52.4559
127.829 100 53.3271
129.64 100 54.2888
128.068 100 55.3644
128.083 100 57.5017
130.256 100 58.0957
129.885 100 59.1924
136.878 100 74.3812
130.97 100 77.415
138.988 100 79.5488
141.862 100 80.1953
143.039 100 79.925
144.034 100 80.6128
144.921 100 79.867
146.077 100 78.9595
146.911 100 79.7072
147.089 100 78.5383
148.247 100 77.7912
149.355 100 78.1792
151.289 100 78.5435
152.402 100 78.1374
72.0038 100 78.8361
73.2227 100 79.5238
74.1679 100 78.8701
75.2222 100 79.4796
76.254 100 78.8941
76.2279 100 80.0078
77.2494 100 79.3041
79.7428 100 80.6243
80.8689 100 81.1464
81.9765 100 81.3267
82.9463 100 80.4826
83.2456 100 81.8865
85.7901 100 79.2177
85.1515 100 80.5691
83.782 100 83.1013
90.3354 100 78.4016
95.3745 100 59.7269
96.5641 100 57.4663
98.5456 100 54.8517
97.7809 100 55.6288
97.8277 100 53.9376
97.8426 100 52.6588
103.524 100 46.6547
104.596 100 42.5784
107.481 100 42.2802
109.14 100 44.0322
106.843 100 43.235
104.336 100 48.6773
105.856 100 48.2574
107.521 100 49.2787
118.705 100 46.9879
120.657 100 48.2941
121.418 100 49.1343
118.241 100 44.0295
117.275 100 44.8494
117.809 100 42.9477
118.558 100 42.1187
122.466 100 46.9119
125.428 100 52.369
128.441 100 54.3295
127.155 100 54.2535
125.901 100 54.6902
126.554 100 57.0261
128.833 100 58.3051
131.224 100 76.2538
140.874 100 82.2332
140.297 100 80.8763
139.114 100 80.6712
141.477 100 81.2013
141.973 100 82.1232
142.67 100 81.2966
145.047 100 81.1878
146.055 100 81.6017
146.007 100 80.458
147.889 100 80.1403
148.148 100 78.8479
149.058 100 79.5427
150.296 100 79.0966
151.15 100 79.6816
152.386 100 79.1757
72.0307 100 80.1812
73.2781 100 80.6
74.2508 100 79.9327
75.2626 100 80.4803
76.4115 100 82.348
74.427 100 83.6278
76.4073 100 81.1109
78.683 100 80.7128
79.3318 100 81.6128
78.3825 100 82.1782
81.0477 100 82.225
81.0971 100 83.3635
82.0692 100 82.7341
82.741 100 83.8783
84.3668 100 81.6555
88.444 100 78.7246
96.5605 100 59.5676
96.4828 100 58.5242
99.1004 100 56.1652
100.117 100 53.3425
[...]
POINT_DATA 1600
SCALARS mass double
LOOKUP_TABLE default
1
1
1
1
1
1
1
1
1
1
1
1
1
1
1
1
1
1
1
1
1
1
1
1
1
1
1
1
1
1
1
1
1
1
1
1
1
1
1
1
1
1
1
1
1
1
1
1
1
1
1
1
1
1
1
1
1
1
1
1
1
1
1
1
1
1
1
1
1
1
1
1
1
1
1
1
1
1
1
1
1
1
1
1
1
1
1
1
1
1
1
1
1
1
1
1
1
1
1
1
1
1
1
1
1
1
1
1
1
1
1
1
1
1
1
1
1
1
1
1
1
1
1
1
1
1
1
1
1
1
1
1
1
1
1
1
1
1
1
1
1
1
1
1
1
1
1
1
1
1
1
1
1
1
1
1
1
1
1
1
1
1
1
1
1
1
1
1
1
1
1
1
1
1
1
1
1
1
1
1
1
1
1
1
1
1
1
1
1
1
1
1
1
1
1
1
1
1
1
1
1
1
1
1
1
1
1
1
1
1
1
1
1
1
1
1
1
1
1
1
1
1
1
1
1
1
1
1
1
1
1
1
1
1
1
1
1
1
1
1
1
1
1
1
1
1
1
1
1
1
1
1
1
1
1
1
1
1
1
1
1
1
1
1
1
1
1
1
1
1
1
1
1
1
1
1
1
1
1
1
1
1
1
1
1
1
1
1
1
1
1
1
1
1
1
1
1
1
1
1
1
1
1
1
1
1
1
1
1
1
1
1
1
1
1
1
1
1
1
1
1
1
1
1
1
1
1
1
1
1
1
1
1
1
1
1
1
1
1
1
1
1
1
1
1
1
1
1
1
1
1
1
1
1
1
1
1
1
1
1
1
1
1
1
1
1
1
1
1
1
1
1
1
1
1
1
1
1
1
1
1
1
1
1
1
1
1
1
1
1
1
1
1
1
1
1
1
1
1
1
1
1
1
1
1
1
1
1
1
1
1
1
1
1
1
1
1
1
1
1
1
1
1
1
1
1
1
1
1
1
1
1
1
1
1
1
1
1
1
1
1
1
1
1
1
1
1
1
1
1
1
1
1
1
1
1
1
1
1
1
1
1
1
1
1
1
1
1
1
1
1
1
1
1
1
1
1
1
1
1
1
1
1
1
1
1
1
1
1
1
1
1
1
1
1
1
1
1
1
1
1
1
1
1
1
1
1
1
1
1
1
1
1
1
1
1
1
1
1
1
1
1
1
1
1
1
1
1
1
1
1
1
1
1
1
1
1
1
1
1
1
1
1
1
1
1
1
1
1
1
1
1
1
1
1
1
1
1
1
1
1
1
1
1
1
1
1
1
1
1
1
1
1
1
1
1
1
1
1
1
1
1
1
1
1
1
1
1
1
1
1
1
1
1
1
1
1
1
1
1
1
1
1
1
1
1
1
1
1
1
1
1
1
1
1
1
1
1
1
1
1
1
1
1
1
1
1
1
1
1
1
1
1
1
1
1
1
1
1
1
1
1
1
1
1
1
1
1
1
1
1
1
1
1
1
1
1
1
1
1
1
1
1
1
1
1
1
1
1
1
1
1
1
1
1
1
1
1
1
1
1
1
1
1
1
1
1
1
1
1
1
1
1
1
1
1
1
1
1
1
1
1
1
1
1
1
1
1
1
1
1
1
1
1
1
1
1
1
1
1
1
1
1
1
1
1
1
1
1
1
1
1
1
1
1
1
1
1
1
1
1
1
1
1
1
1
1
1
1
1
1
1
1
1
1
1
1
1
1
1
1
1
1
1
1
1
1
1
1
1
1
1
1
1
1
1
1
1
1
1
1
1
1
1
1
1
1
1
1
1
1
1
1
1
1
1
1
1
1
1
1
1
1
1
1
1
1
1
1
1
1
1
1
1
1
1
1
1
1
1
1
1
1
1
1
1
1
1
1
1
1
1
1
1
1
1
1
1
1
1
1
1
1
1
1
1
1
1
1
1
1
1
1
1
1
1
1
1
1
1
1
1
1
1
1
1
1
1
1
1
1
1
1
1
1
1
1
1
1
1
1
1
1
1
1
1
1
1
1
1
1
1
1
1
1
1
1
1
1
1
1
1
1
1
1
1
1
1
1
1
1
1
1
1
1
1
1
1
1
1
1
1
1
1
1
1
1
1
1
1
1
1
1
1
1
1
1
1
1
1
1
1
1
1
1
1
1
1
1
1
1
1
1
1
1
1
1
1
1
1
1
1
1
1
1
1
1
1
1
1
1
1
1
1
1
1
1
1
1
1
1
1
1
1
1
1
1
1
1
1
1
1
1
1
1
1
1
1
1
1
1
1
1
1
1
1
1
1
1
1
1
1
1
1
1
1
1
1
1
1
1
1
1
1
1
1
1
1
1
1
1
1
1
1
1
1
1
1
1
1
1
1
1
1
1
1
1
1
1
1
1
1
1
1
1
1
1
1
1
1
1
1
1
1
1
1
1
1
1
1
1
1
1
1
1
1
1
1
1
1
1
1
1
1
1
1
1
1
1
1
1
1
1
1
1
1
1
1
1
1
1
1
1
1
1
1
1
1
1
1
1
1
1
1
1
1
1
1
1
1
1
1
1
1
1
1
1
1
1
1
1
1
1
1
1
1
1
1
1
1
1
1
1
1
1
1
1
1
1
1
1
1
1
1
1
1
1
1
1
1
1
1
1
1
1
1
1
1
1
1
1
1
1
1
1
1
1
1
1
1
1
1
1
1
1
1
1
1
1
1
1
1
1
1
1
1
1
1
1
1
1
1
1
1
1
1
1
1
1
1
1
1
1
1
1
1
1
1
1
1
1
1
1
1
1
1
1
1
1
1
1
1
1
1
1
1
1
1
1
1
1
1
1
1
1
1
1
1
1
1
1
1
1
1
1
1
1
1
1
1
1
1
1
1
1
1
1
1
1
1
1
1
1
1
1
1
1
1
1
1
1
1
1
1
1
1
1
1
1
1
1
1
1
1
1
1
1
1
1
1
1
1
1
1
1
1
1
1
1
1
1
1
1
1
1
1
1
1
1
1
1
1
1
1
1
1
1
1
1
1
1
1
1
1
1
1
1
1
1
1
1
1
1
1
1
1
1
1
1
1
1
1
1
1
1
1
1
1
1
1
1
1
1
1
1
1
1
1
1
1
1
1
1
1
1
1
1
1
1
1
1
1
1
1
1
1
1
1
1
1
1
1
1
1
1
1
1
1
1
1
1
1
1
1
1
1
1
1
1
1
1
1
1
1
1
1
1
1
1
1
1
1
1
1
1
1
1
1
1
1
1
1
1
1
1
1
1
1
1
1
1
1
1
1
1
1
1
1
1
1
1
1
1
1
1
1
1
1
1
1
1
1
1
1
1
1
1
1
1
1
1
1
1
1
1
1
1
1
1
1
1
1
1
1
1
1
1
1
1
1
1
1
1
1
1
1
1
1
1
1
1
1
1
1
1
1
1
1
1
1
1
1
1
1
1
1
1
1
1
1
1
1
1
1
1
1
1
1
1
1
1
1
1
1
1
1
1
1
1
1
1
1
1
1
1
1
1
1
1
1
1
1
1
1
1
1
1
1
1
1
1
1
1
1
1
1
1
1
1
1
1
1
1
1
1
1
1
1
1
1
1
1
1
1
1
1
1
1
1
1
1
1
1
1
1
1
1
1
1
1
VECTORS force double
-17.2849 0 -0.674379
-57.3876 0 -43.4733
55.9792 0 32.0215
2.87671 0 28.1931
-7.35018 0 -7.99926
72.0775 0 -105.646
-4.5764 0 21.0067
-64.2979 0 -31.2937
60.1179 0 22.3573
-3.3419 0 7.99237
5.86028 0 30.6477
-6.251 0 -18.6182
15.8633 0 14.04
-1.62468 0 3.34865
0 0 0
19.5788 0 0.955891
-79.0324 0 44.8301
-103.141 0 -12.1343
0 0 0
9.45944 0 -2.85225
-58.4829 0 -6.60311
3.60393 0 -0.965066
7.79379 0 21.6271
14.1741 0 -2.53194
-14.4273 0 24.0601
6.97357 0 35.0428
-0.298224 0 -2.91101
-8.09219 0 5.46202
-9.39265 0 0.0948176
-14.168 0 -21.8365
-6.06518 0 15.9305
12.9178 0 -22.7497
5.89581 0 18.6014
4.38381 0 0.146656
-17.4717 0 -32.8138
-4.01102 0 -6.99046
3.48216 0 6.88549
-19.306 0 -0.249177
18.2443 0 -13.1528
5.59764 0 -9.92296
17.6017 0 6.1637
0 0 0
3.97898 0 23.0425
-4.9598 0 -7.18201
-14.1039 0 7.24391
-2.59004 0 -2.63541
-16.5506 0 27.1959
1.06456 0 -5.27254
10.9036 0 17.919
20.3328 0 27.4598
1.07711 0 -39.4623
4.18051 0 -27.5015
15.0919 0 41.4946
-2.43823 0 9.46646
13.4933 0 -7.56229
14.9445 0 -42.5809
-34.5083 0 -4.66462
5.87052 0 -19.7174
2.33759 0 11.2943
-3.50656 0 16.4746
14.1057 0 9.55168
-26.9546 0 25.7137
18.1456 0 -38.0744
10.532 0 13.3051
-75.5198 0 18.6072
18.0395 0 1.35551
-10.9139 0 -14.6826
5.8479 0 -23.5757
-11.9015 0 15.1577
13.2839 0 -48.083
-2.50079 0 19.055
-24.0533 0 -45.4751
4.6144 0 -6.86836
0.28826 0 -16.0064
-30.6269 0 10.4505
14.0723 0 7.22863
-26.5425 0 -38.8507
117.54 0 21.0885
-20.9923 0 0.216755
2.56468 0 125.381
33.9021 0 -31.4085
0 0 0
0.430987 0 8.01937
-7.95499 0 16.8812
-13.2945 0 10.6257
0.756868 0 -31.2649
16.2168 0 -2.9034
-12.1191 0 11.2649
0 0 0
15.1141 0 5.20708
4.67136 0 15.6335
0 0 0
-56.7093 0 19.6552
-12.4112 0 8.65762
50.1013 0 118.894
-8.58192 0 -1.11001
46.301 0 3.12336
-66.5109 0 -12.2635
0 0 0
-3.19791 0 9.76876
-6.77671 0 2.8141
15.0349 0 13.8454
-14.5595 0 5.7123
-21.2462 0 -4.63785
5.73511 0 -4.56887
8.94277 0 3.39138
66.5422 0 3.29097
-4.21751 0 -3.82024
18.4843 0 -8.36765
-8.43296 0 16.7969
9.55422 0 -38.6605
-33.9594 0 -5.95676
13.8504 0 31.3811
8.91913 0 -42.4172
-24.6925 0 11.1447
4.00016 0 40.6725
11.017 0 -28.2
2.69386 0 19.7992
29.7553 0 -19.9593
-14.985 0 -9.96789
5.24462 0 -37.2845
-52.2085 0 -8.54695
26.3111 0 13.5253
9.95032 0 12.3367
-3.03639 0 -43.7159
-15.0289 0 93.821
4.97152 0 -10.7615
0.706405 0 -48.4559
10.8566 0 45.743
-9.31172 0 12.5569
-15.0067 0 -21.1308
-4.87096 0 -25.9663
20.9459 0 -37.9814
-8.87026 0 8.81355
13.166 0 -3.98888
-10.7385 0 -13.2829
161.557 0 -29.0124
-38.8675 0 -37.3049
-14.943 0 -24.9906
-0.152746 0 6.44679
-1.21788 0 -102.578
-1.89489 0 -20.0106
-28.3227 0 20.4417
-4.55425 0 12.4327
0 0 0
-9.13107 0 0.330405
-1.14124 0 -18.2959
-4.68306 0 18.0722
-54.8371 0 -3.26527
11.4953 0 -8.57714
54.8147 0 -23.4066
-33.2731 0 2.55715
-12.9653 0 4.06467
0 0 0
-17.4835 0 15.3417
46.822 0 5.91976
-9.94899 0 -24.5708
34.0464 0 -2.29481
-15.3142 0 1.41691
10.6375 0 9.78684
-54.8219 0 -138.255
2.54352 0 -37.6202
49.3473 0 144.529
11.2815 0 6.02341
31.3074 0 -25.0082
-14.8528 0 -5.57824
-28.3293 0 -57.866
7.21745 0 -12.8776
-31.9727 0 5.13403
22.6453 0 16.4503
0.142529 0 -17.3511
27.8874 0 -11.3391
-8.86038 0 61.0741
-9.16584 0 3.5386
-38.1568 0 -16.3921
11.6608 0 34.9854
2.03671 0 -1.43615
-5.06818 0 53.1303
-34.7867 0 2.10066
-23.4944 0 6.56893
16.6582 0 20.3171
3.73343 0 -1.66365
51.3546 0 21.2629
41.2987 0 -30.2676
13.1272 0 14.1314
-9.13685 0 -45.8615
-25.0052 0 15.4801
20.9297 0 29.7055
-8.02221 0 1.28511
4.64546 0 49.8671
-43.6583 0 44.5023
3.66135 0 24.8967
3.27235 0 -29.0418
-12.7031 0 14.4062
-4.17734 0 -11.3396
19.485 0 2.39293
5.05525 0 0.670257
-8.55965 0 0.0562865
19.6624 0 18.8405
9.00329 0 14.0265
12.2549 0 5.4109
-4.63268 0 -69.6809
4.52312 0 3.51993
3.51917 0 -2.45185
28.2604 0 9.34865
-1.41294 0 -7.30219
-38.4167 0 -2.00019
19.8071 0 -2.84303
26.1101 0 13.8588
-32.3465 0 -3.47604
37.4375 0 -72.1342
0 0 0
118.366 0 16.0932
-3.40369 0 71.1005
16.0375 0 12.7106
-11.4969 0 -13.2023
-16.6112 0 54.9309
19.9677 0 -4.92453
24.2872 0 -6.32885
-29.9122 0 -25.8369
-6.45408 0 70.3448
5.57772 0 1.21781
1.72097 0 2.25338
-52.9801 0 17.175
1.30674 0 3.17417
-9.82864 0 5.6216
-3.45892 0 -11.0094
-6.15366 0 4.46433
-24.0298 0 65.518
69.6392 0 10.2641
-4.57404 0 5.56051
2.13733 0 22.4532
-8.64181 0 7.31513
-19.3635 0 -23.0775
32.1515 0 -22.6412
32.4555 0 17.2877
3.16267 0 -3.82449
-3.54297 0 -24.2777
-31.7208 0 26.0587
56.724 0 11.7552
-2.71864 0 12.3741
-16.4504 0 25.4106
-39.517 0 35.8055
-1.99787 0 36.5103
63.8504 0 -23.0854
14.8444 0 16.0318
-40.9954 0 14.339
3.63207 0 23.933
35.6845 0 4.31934
23.9467 0 -30.769
-14.9076 0 -28.1072
20.0303 0 -51.4431
19.6015 0 7.56227
-22.7624 0 9.35089
-14.8275 0 -3.83125
12.4653 0 30.56
36.3517 0 7.36848
5.90905 0 -3.35955
-18.7011 0 53.7217
38.6667 0 -16.0205
26.6699 0 -35.6331
4.44453 0 -4.93124
-19.8555 0 3.58836
-23.0292 0 -8.1162
-7.53254 0 21.0398
12.7281 0 -12.0821
1.21146 0 -13.0772
-9.28005 0 -18.1118
7.51317 0 -22.7561
-20.2024 0 -28.5909
52.7649 0 -23.2559
-48.02 0 -72.1567
14.2559 0 -31.7739
-34.6186 0 25.0657
-6.17807 0 -16.6125
62.3261 0 11.9304
-19.6428 0 2.47679
84.7132 0 -173.37
-4.17387 0 10.9163
-22.3759 0 -5.58108
-5.60509 0 10.3838
10.0671 0 -2.28973
-4.83893 0 -6.95291
4.43931 0 -3.32323
1.21566 0 0.612383
13.2209 0 64.9147
-59.0706 0 -63.5966
-53.8171 0 -15.5268
110.022 0 -114.658
-10.0339 0 -10.7798
3.18446 0 -4.17991
-23.9116 0 -22.9357
44.8892 0 -35.1309
-4.04128 0 17.3252
-3.8392 0 4.97595
-30.8272 0 16.7852
6.25148 0 -58.5971
-8.51022 0 -73.6507
16.8894 0 15.8067
-14.6331 0 -1.67219
-12.4438 0 -20.0881
43.7027 0 7.30533
-14.3421 0 -18.5072
-8.94529 0 -26.5556
-47.784 0 45.4072
6.75245 0 -9.59206
-9.11042 0 5.47174
26.9154 0 5.97947
5.92276 0 9.45759
-24.7466 0 3.63772
34.551 0 5.73157
-7.12502 0 -5.40089
-28.5779 0 42.2284
1.02635 0 5.60133
-16.8219 0 12.4152
-1.33287 0 -9.19422
-9.48186 0 -63.4557
-71.111 0 -2.46587
-7.08377 0 2.73874
-27.7013 0 14.026
-14.4827 0 1.30691
-21.9171 0 13.8477
11.5669 0 16.7003
4.57364 0 -0.589835
26.6893 0 10.6323
30.0328 0 -10.7987
-7.52695 0 -19.2684
16.8609 0 51.112
20.6846 0 11.8699
-39.0615 0 0.725873
-97.3046 0 -29.6073
2.57109 0 37.0897
-29.8978 0 -7.83558
5.93136 0 -5.31274
60.5785 0 -6.84664
41.1892 0 11.9606
-16.3239 0 12.5912
-2.57652 0 -1.21403
-0.936919 0 -19.9979
-27.3498 0 -16.6227
16.161 0 14.2014
1.46043 0 9.41967
-26.5608 0 -12.506
21.1442 0 22.8986
12.0456 0 -26.0159
22.901 0 8.02033
0 0 0
-89.9964 0 88.9364
-2.66536 0 -0.479447
-7.46312 0 26.7647
2.93855 0 33.4558
-55.4906 0 -30.5907
18.8851 0 8.58486
2.22006 0 -15.4474
-4.21283 0 3.02452
1.66105 0 68.9405
-0.954017 0 -7.18604
12.8448 0 55.9961
-39.3917 0 -36.6902
-25.084 0 -2.37847
-12.8157 0 -44.4381
25.4244 0 14.977
-54.5637 0 55.5042
-25.6598 0 -61.2785
136.769 0 -32.5899
1.77469 0 5.62311
7.12808 0 7.59333
28.7092 0 -19.1478
-44.1396 0 5.62064
-24.0484 0 -60.2531
21.1022 0 -25.5035
9.97722 0 65.6349
-27.0715 0 2.03407
-8.5856 0 1.81699
-1.11847 0 -17.4897
-10.4897 0 41.7491
-46.1113 0 8.74599
10.38 0 -33.1485
2.66781 0 8.56469
-58.0787 0 -3.21612
-6.95649 0 50.006
-7.91469 0 10.3144
2.98458 0 -10.364
-9.17595 0 -2.86501
-11.6328 0 -4.38209
-3.67596 0 12.0637
1.37519 0 9.82893
-13.9689 0 -9.00163
12.0745 0 -0.82974
-13.4086 0 7.18837
-3.51494 0 14.4366
4.48789 0 -2.5947
6.02106 0 -6.04778
7.90554 0 3.28624
-27.8974 0 48.0564
-19.3303 0 12.1083
-102.469 0 97.1836
3.65097 0 0.665725
27.1926 0 -46.8005
27.6616 0 15.6502
-9.78437 0 5.12867
-2.05662 0 -10.801
-1.13231 0 9.31772
5.41043 0 -10.0447
-12.1738 0 32.2371
-21.3078 0 -37.8352
8.25124 0 -1.21785
-3.55015 0 2.07614
38.1986 0 33.3868
19.8954 0 0.0551906
-11.4833 0 0.441634
0.516127 0 -38.4546
57.269 0 41.9074
-15.133 0 6.8083
-22.5896 0 -8.14742
2.54669 0 -12.3146
5.61985 0 -48.7141
-5.51155 0 35.915
51.3197 0 27.6923
-9.8333 0 -49.8473
10.8097 0 43.874
-15.6034 0 -31.1719
4.02146 0 -30.5622
18.9853 0 -146.843
-101.253 0 37.9193
31.5069 0 -14.6076
12.6795 0 23.0639
33.255 0 -11.1189
-15.2641 0 -27.0877
13.3894 0 23.2075
8.79968 0 37.586
-6.17234 0 2.39905
-27.1369 0 -42.8916
18.9864 0 11.0717
-20.7454 0 -45.7745
-9.68133 0 3.94756
20.4472 0 2.04222
83.6845 0 -0.65411
15.4553 0 -3.69217
1.30449 0 11.8636
25.1418 0 12.7672
25.6774 0 -18.4466
26.9351 0 -16.4112
26.493 0 -14.7124
9.20065 0 -6.31254
9.92123 0 -1.65681
3.07886 0 -10.7478
-2.4989 0 -11.0784
-15.8714 0 -44.5439
11.1411 0 -11.3583
-4.26651 0 9.17548
-4.3414 0 1.34804
0.117966 0 -12.1482
-14.5261 0 -12.2611
7.8831 0 -13.3977
58.369 0 -17.4659
13.0437 0 -7.98838
10.345 0 -2.26272
-11.88 0 31.6094
2.60865 0 -27.5134
2.14335 0 -3.38145
2.41897 0 -4.25202
-18.608 0 -0.737999
23.5726 0 4.06102
-23.8253 0 0.349395
-8.33873 0 6.29963
4.08453 0 4.79908
10.7194 0 -2.15998
-33.5936 0 -13.8547
-27.2519 0 41.108
-11.0492 0 -89.2992
-19.392 0 -50.73
19.9917 0 -7.73911
-13.3801 0 -4.69663
47.3406 0 4.62994
8.48468 0 45.3958
6.33187 0 -20.0623
-58.3136 0 -86.2326
82.1133 0 24.2104
-22.4085 0 63.9717
20.1098 0 -10.8085
8.23483 0 21.6658
-15.9881 0 54.4778
-18.1681 0 143.431
-1.61047 0 -8.973
-23.9516 0 -0.638433
-8.65311 0 13.9583
-43.4981 0 -5.36781
1.72257 0 23.7541
5.29898 0 25.6108
11.4333 0 9.95007
14.8404 0 -44.1437
0.572619 0 3.44267
35.3806 0 -18.7858
1.54773 0 -2.86984
-6.62242 0 5.96234
-94.1261 0 50.8982
-25.8021 0 -34.4524
-70.6352 0 84.0761
7.02369 0 -8.18939
1.66906 0 -6.20122
-13.6438 0 22.3424
5.74592 0 11.7078
-15.2351 0 -14.5597
0.834695 0 -0.667436
-13.5087 0 21.7365
13.6102 0 -1.43054
-11.5393 0 12.8396
77.7378 0 27.7079
-13.1963 0 11.6188
4.99539 0 6.97485
14.4222 0 1.37264
38.4029 0 -26.0362
8.80662 0 -78.4066
1.09171 0 28.8649
-3.07364 0 23.7571
-23.8058 0 -5.14852
-20.3618 0 14.3871
-11.637 0 18.5091
53.4796 0 -39.5373
13.7042 0 39.883
-2.64682 0 -126.57
-3.11417 0 -4.52783
-2.31622 0 -2.96727
-51.1591 0 -19.0703
-33.9338 0 -23.5036
39.1477 0 33.7262
-24.3488 0 -4.25059
91.2103 0 38.4509
7.50782 0 34.4135
1.47261 0 14.9048
3.55338 0 22.1943
-3.96348 0 2.16884
22.1062 0 -29.5856
0.856118 0 -1.5345
-63.8288 0 -0.564954
-23.4229 0 27.8251
-18.0633 0 52.9658
-44.28 0 -26.7062
0.561805 0 -65.83
16.1475 0 -2.91745
9.30029 0 20.3941
-61.156 0 -58.306
2.20647 0 6.06328
63.8803 0 23.7717
-26.668 0 -14.0028
3.78738 0 0.121768
28.9888 0 -24.3924
1.05123 0 -82.3509
-3.13586 0 -12.1817
13.9616 0 -5.18918
-34.5462 0 -39.1173
16.6515 0 -13.0281
-37.415 0 27.9319
19.1336 0 44.2458
-9.43674 0 -18.4366
9.93148 0 0.0485348
-85.7483 0 -60.0388
35.8621 0 -44.3479
83.1921 0 -13.5445
21.1129 0 -1.18637
40.8069 0 -86.6537
22.9429 0 13.2976
0.351727 0 -18.2466
4.78183 0 -1.80547
39.181 0 -51.3579
-1.84108 0 13.3793
7.68746 0 1.68714
-3.84028 0 26.0546
-4.3033 0 -7.73283
3.72818 0 -11.1641
-18.7412 0 -26.5744
-29.6603 0 9.46782
-11.8926 0 -123.855
-15.7354 0 80.6
-3.01642 0 -14.2839
-32.6924 0 -37.3464
-9.03674 0 11.959
-145.145 0 -41.9121
3.40474 0 8.14072
164.991 0 35.0531
-2.68836 0 -8.66106
8.13628 0 0.527058
-3.71927 0 -0.0597265
-8.33373 0 9.96877
1.65225 0 -13.5101
5.26214 0 -7.1775
-13.2652 0 9.62497
4.49504 0 14.323
-1.3592 0 -6.90111
-1.59878 0 -5.86505
-14.6219 0 -0.373916
32.5111 0 33.3872
-4.56555 0 10.4612
-13.6909 0 -15.0914
18.8248 0 0.947338
-16.1863 0 -9.68007
21.0941 0 0.665425
-51.0242 0 11.0806
47.0897 0 57.0692
3.52042 0 -11.6271
9.27177 0 14.7393
-62.1273 0 -41.6521
16.8868 0 7.00491
53.712 0 -18.721
3.35476 0 -3.47922
0.591565 0 6.62372
-30.2852 0 -89.7435
31.8277 0 108.855
1.57884 0 -4.58939
5.73944 0 8.06917
19.3944 0 89.2603
-63.7118 0 4.60124
-14.5517 0 -16.5258
48.6835 0 31.5483
-56.7751 0 -2.33268
-1.40223 0 12.4888
-39.7227 0 -66.1106
73.2264 0 52.4345
14.7294 0 -6.3069
44.4278 0 19.7206
-14.2683 0 4.76063
-31.4599 0 82.3566
-20.9919 0 72.2908
-0.253993 0 9.78662
-11.8598 0 -52.0414
4.20858 0 -1.37346
-56.0048 0 17.1056
-8.77663 0 -17.1869
10.1055 0 8.3974
-29.0201 0 1.7776
66.5949 0 21.3676
-25.7773 0 20.7965
-18.4409 0 -22.4253
-20.2709 0 109.22
82.8315 0 59.0554
8.67689 0 19.0208
-3.99763 0 -6.03221
13.2648 0 -42.1094
0.728117 0 92.1362
41.1636 0 7.67231
8.31359 0 -10.6182
21.9448 0 -79.4388
18.5715 0 -1.42832
-2.09698 0 1.28377
37.9619 0 -41.1801
-3.21957 0 -14.2828
19.3982 0 14.893
-4.07332 0 -3.6377
6.66123 0 3.15715
-8.10514 0 28.3971
35.1064 0 6.36334
17.8296 0 13.8433
-1.88661 0 -5.52947
-49.2171 0 -120.055
37.6604 0 27.8246
-12.0401 0 13.7713
3.14342 0 -7.06967
-18.3281 0 8.47781
-1.24019 0 -10.0902
-5.1354 0 24.4311
-9.75256 0 20.5512
-11.1904 0 8.32803
17.8148 0 58.5259
-10.8974 0 -11.7539
-156.241 0 -116.282
-17.0704 0 -8.4814
-1.93794 0 0.133087
-3.5357 0 -1.33359
-10.1212 0 101.659
-12.8784 0 -9.83722
2.37153 0 -47.7232
-6.18509 0 7.19334
12.4854 0 13.7354
10.2439 0 -0.479375
21.9663 0 -31.645
-31.2931 0 65.0973
-7.05738 0 5.52881
16.6012 0 -2.44716
-14.0733 0 -38.5294
-2.47001 0 16.6709
-5.70105 0 18.9711
-4.23033 0 -14.2682
-0.593866 0 18.3428
2.35185 0 14.0623
-14.8207 0 12.8835
-14.8728 0 -4.25668
-2.86097 0 -18.2799
1.9418 0 -6.41706
-1.79259 0 -4.99984
0.215285 0 9.03154
-18.9012 0 29.8418
-68.1423 0 -89.8251
11.8602 0 18.1307
-4.30437 0 6.73887
-29.2477 0 8.22585
-13.6586 0 13.5569
-33.66 0 68.9758
-2.19294 0 -4.10552
-13.36 0 -6.60858
-9.54112 0 5.61645
-10.4878 0 5.11912
-1.65781 0 3.55091
1.79504 0 7.30154
-2.26272 0 10.3041
14.1277 0 6.48674
-52.2206 0 60.1198
-2.46577 0 13.6202
11.8734 0 27.4812
-68.1547 0 -99.5022
-12.2451 0 -7.49864
15.0784 0 14.2666
22.1536 0 -83.2878
13.029 0 2.71301
56.3007 0 -63.1115
-4.95797 0 84.5992
12.0212 0 13.3557
-16.8716 0 -27.6601
-0.278734 0 -12.8123
-0.915542 0 0.99282
21.2558 0 6.32263
20.5819 0 -4.4224
1.09503 0 3.84229
-12.3634 0 -35.5431
0.462946 0 -38.8483
164.241 0 112.038
-6.30665 0 8.06294
-13.0304 0 40.669
-0.676251 0 -25.5093
12.9432 0 3.8
2.48024 0 -49.7186
-23.9717 0 29.9191
7.92585 0 -43.8037
-8.97165 0 -20.6424
24.0012 0 -35.4749
3.07857 0 -41.778
27.6054 0 -19.3574
0.524157 0 0.0523381
-31.9719 0 -18.7237
6.51867 0 -5.50707
19.0131 0 -10.7876
34.0251 0 12.7866
-17.0094 0 -1.08338
1.30337 0 -10.3744
23.0435 0 30.4905
-105.752 0 45.078
-18.6777 0 6.72358
-10.5662 0 8.0313
2.27322 0 10.3211
-6.9959 0 -19.9001
-32.7923 0 -25.698
14.7131 0 -10.0326
2.09024 0 -0.178381
-2.16066 0 10.3886
19.2188 0 -9.84385
65.3268 0 61.3916
-3.63676 0 10.7044
16.1017 0 -43.4802
3.48967 0 -14.2877
-15.5003 0 5.84041
-1.47966 0 -0.0696982
9.43986 0 25.0588
-2.92284 0 11.8632
-4.11579 0 5.51682
2.93976 0 -14.7261
10.0789 0 -2.74531
-38.6242 0 -5.53303
-3.54578 0 10.1253
4.23437 0 -8.69164
26.8975 0 85.8651
-30.7717 0 77.0259
-37.3646 0 68.7124
-19.7876 0 9.64264
3.22583 0 17.7974
-47.4138 0 -8.67883
-39.5702 0 13.3611
-49.359 0 -38.5717
45.834 0 39.6982
53.6858 0 46.4441
-14.4173 0 12.8138
12.0198 0 -0.605928
11.9521 0 5.27813
10.747 0 -7.48173
8.22873 0 -2.22508
3.60908 0 -19.0231
41.726 0 47.1673
5.93929 0 40.6793
-0.313066 0 -17.6986
-15.6886 0 7.9999
3.78852 0 2.05259
-31.803 0 8.26153
-10.6889 0 66.384
49.0798 0 12.0363
-6.52608 0 -11.7848
0.0274553 0 29.6961
-11.0606 0 -28.5312
-8.2918 0 15.8158
27.0492 0 -13.6756
-2.29247 0 0.825216
-0.474304 0 1.52869
1.04667 0 -1.6826
-6.5198 0 31.9711
8.06354 0 -2.09778
-3.01786 0 -56.7171
8.29955 0 0.837311
76.4009 0 -5.56191
18.5964 0 -34.9739
-15.9625 0 -0.775839
3.19807 0 -7.00847
-10.5484 0 12.1538
-60.0921 0 -21.3752
-0.176494 0 7.60232
-5.92482 0 2.7966
17.4633 0 -12.3834
-4.2687 0 -25.1014
23.2078 0 29.3031
-12.2286 0 9.08461
-23.2457 0 2.90744
13.1175 0 8.16026
-16.2468 0 -3.71048
-18.767 0 64.1574
-62.7716 0 78.8597
-6.03659 0 -1.16197
-2.93704 0 6.28421
-0.202503 0 3.91291
-1.02448 0 -12.2447
42.524 0 17.825
2.85326 0 44.6018
-3.79191 0 -14.4714
17.3738 0 -41.6287
87.8914 0 -61.8274
-10.328 0 -14.9232
51.1525 0 -32.7374
3.65073 0 5.82055
100.217 0 45.6613
-11.7543 0 -3.16766
2.90475 0 -2.00381
2.7652 0 18.4409
-16.188 0 14.0181
-7.74171 0 0.606242
5.4578 0 20.3259
-6.15329 0 10.9639
0.92255 0 -48.0425
5.94697 0 2.95014
-25.5017 0 63.973
-1.68073 0 -6.6768
7.1991 0 -0.462027
-24.8367 0 -7.43546
-12.1534 0 -29.0629
8.84038 0 -4.22616
3.43994 0 -7.30766
22.6594 0 -11.8068
-27.494 0 -22.4324
7.29135 0 13.5362
3.63547 0 3.60999
12.4396 0 -29.3426
29.4281 0 -28.3089
9.75791 0 6.21692
-25.3253 0 -17.9293
10.1917 0 -1.56258
-67.6956 0 8.13991
57.1608 0 -13.7202
12.3534 0 -5.17459
-51.4758 0 -64.8319
31.8696 0 -35.4509
-7.67119 0 23.0352
-5.5511 0 11.2904
-0.422294 0 0.108916
7.35029 0 -5.14535
-23.0435 0 -30.4905
17.0303 0 15.0697
43.0618 0 6.30553
-34.2094 0 -35.3219
-13.0286 0 16.3153
0.276617 0 -51.3449
-26.2316 0 -0.815435
21.1046 0 3.89353
3.8327 0 31.0486
2.4746 0 -5.13812
-49.355 0 -5.94599
97.1535 0 4.75242
12.8411 0 -1.28964
10.787 0 -13.3782
62.4744 0 -78.1
7.64896 0 15.5117
4.67315 0 -0.606916
18.6823 0 -27.1586
-3.05931 0 3.92716
8.15869 0 -22.8977
-15.0524 0 37.2984
18.3739 0 70.0725
14.6383 0 3.43104
-22.0889 0 -84.5106