# vtk DataFile Version 3.0
SiWiRVisFile
ASCII
DATASET UNSTRUCTURED_GRID
POINTS 1600 DOUBLE
76.7986 100 72.6682
77.1836 100 73.7273
78.2172 100 74.1693
79.9513 100 74.1337
81.0697 100 74.8452
82.0185 100 75.3461
83.9312 100 74.9159
84.895 100 75.3568
85.9616 100 75.5931
85.0846 100 74.2759
91.0913 100 73.7544
91.4766 100 72.1084
90.0364 100 74.0211
89.6242 100 72.1109
88.7776 100 71.1501
91.4751 100 64.1024
92.7283 100 65.3611
94.8169 100 63.494
91.7835 100 59.4904
96.3427 100 61.5315
103.862 100 46.3375
105.565 100 48.2651
105.735 100 47.2071
106.884 100 47.58
105.192 100 46.2108
108.985 100 47.3561
110.011 100 42.0199
111.134 100 41.4768
110.595 100 43.0004
111.678 100 42.7669
112.856 100 42.6917
113.945 100 42.9951
113.312 100 41.4671
114.429 100 41.9897
115.609 100 47.3189
119.3 100 46.2119
117.602 100 47.5786
118.755 100 47.2073
118.928 100 48.2661
120.63 100 46.3369
128.217 100 61.4116
132.709 100 59.4904
129.645 100 63.5416
131.768 100 65.3602
133 100 64.2124
135.738 100 71.1396
134.878 100 72.1101
134.454 100 73.9756
132.981 100 72.0789
133.389 100 73.7587
139.408 100 74.274
138.528 100 75.5815
139.595 100 75.3542
140.558 100 74.9143
142.476 100 75.3445
143.423 100 74.8453
144.54 100 74.1347
146.275 100 74.1709
147.309 100 73.7275
147.694 100 72.6679
76.2743 100 74.4741
77.3269 100 74.8846
79.1416 100 74.8186
80.082 100 75.3229
81.2026 100 76.0529
83.0826 100 75.7025
84.1293 100 76.0124
85.221 100 76.4093
86.2293 100 76.8027
87.2468 100 77.1633
88.4347 100 77.1182
92.4973 100 71.8584
90.3655 100 72.8783
91.1704 100 69.774
92.6004 100 66.3726
90.5386 100 71.481
93.4056 100 64.1946
95.739 100 62.5433
96.771 100 62.9503
98.5814 100 62.8352
104.66 100 47.3647
98.4957 100 53.3024
105.966 100 54.9492
110.641 100 45.8038
106.515 100 46.4224
108.785 100 48.5892
109.683 100 46.3473
109.562 100 45.117
108.307 100 41.6796
111.49 100 43.7927
112.962 100 43.7918
116.209 100 41.6945
114.929 100 45.1579
114.843 100 46.3452
115.685 100 48.6446
117.976 100 46.4237
113.847 100 45.8694
118.54 100 54.8647
125.997 100 53.3024
119.834 100 47.3642
126.049 100 62.8645
127.692 100 62.8954
128.771 100 62.5067
131.16 100 64.1041
133.963 100 71.5377
131.879 100 66.3983
133.398 100 69.7838
134.11 100 72.8605
131.965 100 71.8368
136.048 100 77.0891
137.244 100 77.1585
138.258 100 76.8011
139.268 100 76.4051
140.363 100 76.0064
141.412 100 75.6951
143.291 100 76.0502
144.41 100 75.3235
145.35 100 74.819
147.166 100 74.8855
148.218 100 74.4742
76.256 100 75.6472
77.2452 100 76.1802
78.205 100 75.4626
79.2039 100 75.9828
80.2056 100 76.5279
82.2173 100 76.3857
83.2021 100 76.8053
84.2962 100 77.1086
85.4107 100 77.5504
86.4234 100 77.8875
87.8652 100 78.2598
88.8887 100 78.1467
90.9116 100 76.6908
91.5164 100 70.8054
92.5735 100 68.6904
93.2511 100 67.6296
93.7522 100 65.3729
94.5986 100 64.6722
95.7934 100 63.7667
97.4948 100 61.8741
98.7603 100 61.8356
103.953 100 56.4744
105.649 100 56.2389
106.959 100 56.072
104.259 100 52.2973
107.119 100 54.9932
106.948 100 53.9487
105.502 100 53.7254
110.519 100 44.2037
111.344 100 44.8807
113.142 100 44.9027
113.968 100 44.1491
119.044 100 53.1725
117.388 100 53.8512
117.484 100 54.8753
120.125 100 52.795
117.715 100 55.8719
118.946 100 55.8086
120.674 100 56.7374
125.749 100 61.8584
127.052 100 62.028
128.363 100 63.6937
129.75 100 64.5925
130.536 100 65.288
131.232 100 67.4106
132.016 100 68.6283
133.005 100 70.7976
133.514 100 76.8672
135.617 100 78.1012
136.627 100 78.2442
138.067 100 77.8895
139.083 100 77.5466
140.202 100 77.1068
141.292 100 76.8016
142.276 100 76.3831
144.287 100 76.5279
145.288 100 75.9831
146.287 100 75.4617
147.247 100 76.1797
148.237 100 75.6475
76.2812 100 76.7735
77.3966 100 77.2965
78.2528 100 76.5817
79.2663 100 77.1038
81.3921 100 77.0569
82.3819 100 77.4544
83.4098 100 77.8369
84.5309 100 78.2617
85.5756 100 78.7311
86.8635 100 78.8884
88.1953 100 79.2673
89.8984 100 78.7209
89.6089 100 77.2132
92.6686 100 70.806
92.2426 100 69.8905
93.6909 100 68.6275
94.682 100 67.4254
93.9694 100 66.445
94.8756 100 65.7764
95.7868 100 64.8569
96.9247 100 64.4353
99.6635 100 62.6581
104.174 100 55.3278
105.233 100 58.6985
105.19 100 57.2947
106.327 100 56.9734
108.886 100 56.6016
110.262 100 56.7662
107.992 100 54.4519
111.523 100 46.4725
112.921 100 46.4674
116.194 100 54.3691
114.517 100 56.2357
115.526 100 56.9772
118.481 100 56.803
119.572 100 56.8384
119.036 100 58.4668
120.046 100 55.8356
124.963 100 62.6238
127.574 100 64.4203
128.745 100 64.8146
129.554 100 65.8862
130.397 100 66.4181
129.981 100 67.7045
130.915 100 68.6767
132.095 100 69.7452
131.831 100 70.7467
134.832 100 77.2095
134.637 100 78.695
136.267 100 79.2368
137.629 100 78.8812
138.921 100 78.7132
139.961 100 78.263
141.092 100 77.836
142.113 100 77.4521
143.103 100 77.0513
145.226 100 77.104
146.24 100 76.5807
147.097 100 77.294
148.212 100 76.7729
76.2894 100 77.9738
77.51 100 78.4114
78.4233 100 77.6599
80.3153 100 77.5772
81.5903 100 78.1482
82.6148 100 78.6118
83.6721 100 79.0228
84.6488 100 79.3161
86.2083 100 79.7572
87.3891 100 79.9445
88.2733 100 80.7016
90.7929 100 79.2813
91.1419 100 77.8895
94.6062 100 69.5848
93.3838 100 69.8727
96.2035 100 68.4884
95.7372 100 67.4375
95.9734 100 66.275
96.8134 100 65.4701
98.037 100 64.8963
97.8437 100 63.5916
103.042 100 62.6675
106.074 100 58.0168
107.161 100 57.7095
107.68 100 56.7687
108.211 100 57.9531
109.456 100 57.6305
110.291 100 58.6321
107.972 100 55.6336
111.33 100 48.5062
113.152 100 48.4684
116.53 100 55.6809
113.681 100 58.2537
114.954 100 57.9443
116.133 100 57.8632
116.808 100 56.794
117.172 100 57.7454
117.994 100 58.4394
121.613 100 62.5139
126.677 100 63.6766
126.466 100 64.9113
127.605 100 65.3808
128.407 100 66.093
129.001 100 67.0424
128.435 100 68.3538
131.007 100 69.885
129.864 100 69.9044
133.521 100 78.0293
133.67 100 79.2145
136.294 100 80.8424
137.063 100 79.9446
138.249 100 79.7492
139.854 100 79.3246
140.837 100 79.0543
141.884 100 78.611
142.91 100 78.1401
144.178 100 77.5752
146.07 100 77.6586
146.983 100 78.4107
148.204 100 77.9726
76.6035 100 79.0354
77.661 100 79.5366
78.5032 100 78.8828
79.4383 100 78.2279
80.5089 100 78.7146
81.4214 100 79.2262
82.6196 100 79.683
83.8288 100 80.2682
84.9135 100 80.5276
85.9438 100 80.8113
87.0885 100 80.9612
89.217 100 79.9155
91.3178 100 80.5694
90.8081 100 75.4008
91.7696 100 74.8401
94.7684 100 68.551
96.7624 100 69.3533
96.9345 100 67.6827
96.9646 100 66.5806
98.7755 100 65.9018
98.8155 100 64.164
101.068 100 63.7288
103.814 100 61.1735
104.986 100 61.4935
106.534 100 59.0228
107.512 100 58.7236
107.958 100 59.8149
109.002 100 58.7694
111.593 100 58.7137
111.454 100 56.6099
113.457 100 56.484
112.795 100 58.9588
114.992 100 59.0806
116.473 100 59.945
116.982 100 58.8142
118.873 100 59.9642
119.614 100 60.8666
120.843 100 61.794
123.443 100 63.6693
125.676 100 64.0264
125.83 100 65.851
127.676 100 66.9631
127.407 100 68.0356
127.575 100 69.1579
129.632 100 68.8444
132.664 100 74.7957
133.618 100 75.2528
133.067 100 80.4712
135.335 100 79.9176
137.447 100 80.9466
138.559 100 80.789
139.592 100 80.5441
140.691 100 80.3003
141.878 100 79.675
143.072 100 79.2245
143.992 100 78.7095
145.049 100 78.2342
145.989 100 78.8809
146.83 100 79.536
147.892 100 79.0328
75.667 100 79.7298
76.8012 100 80.1856
78.6347 100 79.9661
79.7339 100 79.4591
80.6436 100 80.0357
80.83 100 81.7609
82.5442 100 80.7954
84.1114 100 81.3659
85.1771 100 81.5965
86.3669 100 81.8714
87.467 100 81.947
90.2836 100 80.3904
91.6604 100 81.681
91.7658 100 75.9269
95.564 100 70.4951
95.6543 100 69.4338
97.5401 100 70.1666
98.6423 100 68.1636
98.21 100 66.7499
99.616 100 64.8602
100.005 100 63.7962
102.149 100 63.4317
104.087 100 62.3651
106.857 100 60.0842
108.808 100 60.5902
109.565 100 59.7944
109.553 100 62.9465
110.833 100 59.5404
108.841 100 63.907
110.135 100 64.648
114.369 100 63.5712
115.417 100 63.2082
113.796 100 59.4282
114.477 100 62.196
114.943 100 60.1403
115.789 100 60.8927
117.616 100 59.9657
120.238 100 62.6262
122.336 100 63.4819
124.555 100 63.7488
125.026 100 64.9153
126.539 100 66.8435
126.114 100 68.194
127.004 100 70.1603
128.685 100 69.5529
129.074 100 70.5421
132.8 100 75.9393
132.411 100 81.6075
134.237 100 80.2416
137.016 100 81.9317
138.104 100 81.8696
139.307 100 81.6058
140.379 100 81.3842
141.913 100 80.8035
143.65 100 81.7891
143.848 100 80.0381
144.76 100 79.4645
145.856 100 79.9695
147.683 100 80.1861
148.825 100 79.7297
75.7013 100 80.9275
76.7954 100 81.2869
77.7394 100 80.6674
78.6473 100 81.5056
79.4889 100 80.8074
79.7155 100 81.8705
82.1833 100 81.8879
83.4022 100 82.107
84.3946 100 82.4883
85.6348 100 82.8084
86.7897 100 82.8969
87.8712 100 82.8509
89.3647 100 80.97
88.6123 100 81.9437
89.4439 100 82.7948
92.4886 100 80.3126
96.6142 100 70.8722
98.1872 100 69.1603
100.127 100 67.9224
99.2794 100 67.1865
100.091 100 65.8184
101.024 100 64.9471
103.636 100 63.5904
106.122 100 61.279
107.712 100 60.9205
109.287 100 61.7615
108.113 100 62.1145
106.804 100 64.7215
107.823 100 64.3491
110.091 100 66.1382
114.92 100 65.8974
116.81 100 64.4486
117.863 100 64.7337
115.713 100 61.9734
114.661 100 61.1736
116.913 100 60.8535
118.457 100 60.9331
120.868 100 63.5071
123.456 100 64.879
124.137 100 65.8533
125.341 100 66.9593
125.03 100 67.9954
126.23 100 69.412
128.008 100 70.7941
131.959 100 80.4898
134.999 100 82.7387
135.896 100 81.9459
135.12 100 81.0011
136.632 100 82.9078
137.729 100 82.8899
138.875 100 82.7484
140.081 100 82.5
141.093 100 82.1203
142.378 100 81.89
144.787 100 81.8784
145.005 100 80.8061
145.848 100 81.4995
146.738 100 80.6949
147.699 100 81.2795
148.794 100 80.9277
75.6507 100 82.1408
76.6629 100 82.356
77.7006 100 81.9587
79.216 100 82.8009
79.8278 100 83.7875
79.4977 100 84.8325
80.2983 100 82.8654
82.0675 100 82.9407
83.2927 100 83.1319
82.2245 100 83.9601
84.3841 100 83.5272
85.968 100 83.7909
87.3231 100 83.8343
88.5797 100 83.623
90.4601 100 83.2749
91.7549 100 79.3667
97.4242 100 72.5235
97.7328 100 71.4069
99.4281 100 68.8771
100.706 100 68.9788
102.137 100 65.7819
[...]
POINT_DATA 1600
SCALARS mass double
LOOKUP_TABLE default
1
1
1
1
1
1
1
1
1
1
1
1
1
1
1
1
1
1
1
1
1
1
1
1
1
1
1
1
1
1
1
1
1
1
1
1
1
1
1
1
1
1
1
1
1
1
1
1
1
1
1
1
1
1
1
1
1
1
1
1
1
1
1
1
1
1
1
1
1
1
1
1
1
1
1
1
1
1
1
1
1
1
1
1
1
1
1
1
1
1
1
1
1
1
1
1
1
1
1
1
1
1
1
1
1
1
1
1
1
1
1
1
1
1
1
1
1
1
1
1
1
1
1
1
1
1
1
1
1
1
1
1
1
1
1
1
1
1
1
1
1
1
1
1
1
1
1
1
1
1
1
1
1
1
1
1
1
1
1
1
1
1
1
1
1
1
1
1
1
1
1
1
1
1
1
1
1
1
1
1
1
1
1
1
1
1
1
1
1
1
1
1
1
1
1
1
1
1
1
1
1
1
1
1
1
1
1
1
1
1
1
1
1
1
1
1
1
1
1
1
1
1
1
1
1
1
1
1
1
1
1
1
1
1
1
1
1
1
1
1
1
1
1
1
1
1
1
1
1
1
1
1
1
1
1
1
1
1
1
1
1
1
1
1
1
1
1
1
1
1
1
1
1
1
1
1
1
1
1
1
1
1
1
1
1
1
1
1
1
1
1
1
1
1
1
1
1
1
1
1
1
1
1
1
1
1
1
1
1
1
1
1
1
1
1
1
1
1
1
1
1
1
1
1
1
1
1
1
1
1
1
1
1
1
1
1
1
1
1
1
1
1
1
1
1
1
1
1
1
1
1
1
1
1
1
1
1
1
1
1
1
1
1
1
1
1
1
1
1
1
1
1
1
1
1
1
1
1
1
1
1
1
1
1
1
1
1
1
1
1
1
1
1
1
1
1
1
1
1
1
1
1
1
1
1
1
1
1
1
1
1
1
1
1
1
1
1
1
1
1
1
1
1
1
1
1
1
1
1
1
1
1
1
1
1
1
1
1
1
1
1
1
1
1
1
1
1
1
1
1
1
1
1
1
1
1
1
1
1
1
1
1
1
1
1
1
1
1
1
1
1
1
1
1
1
1
1
1
1
1
1
1
1
1
1
1
1
1
1
1
1
1
1
1
1
1
1
1
1
1
1
1
1
1
1
1
1
1
1
1
1
1
1
1
1
1
1
1
1
1
1
1
1
1
1
1
1
1
1
1
1
1
1
1
1
1
1
1
1
1
1
1
1
1
1
1
1
1
1
1
1
1
1
1
1
1
1
1
1
1
1
1
1
1
1
1
1
1
1
1
1
1
1
1
1
1
1
1
1
1
1
1
1
1
1
1
1
1
1
1
1
1
1
1
1
1
1
1
1
1
1
1
1
1
1
1
1
1
1
1
1
1
1
1
1
1
1
1
1
1
1
1
1
1
1
1
1
1
1
1
1
1
1
1
1
1
1
1
1
1
1
1
1
1
1
1
1
1
1
1
1
1
1
1
1
1
1
1
1
1
1
1
1
1
1
1
1
1
1
1
1
1
1
1
1
1
1
1
1
1
1
1
1
1
1
1
1
1
1
1
1
1
1
1
1
1
1
1
1
1
1
1
1
1
1
1
1
1
1
1
1
1
1
1
1
1
1
1
1
1
1
1
1
1
1
1
1
1
1
1
1
1
1
1
1
1
1
1
1
1
1
1
1
1
1
1
1
1
1
1
1
1
1
1
1
1
1
1
1
1
1
1
1
1
1
1
1
1
1
1
1
1
1
1
1
1
1
1
1
1
1
1
1
1
1
1
1
1
1
1
1
1
1
1
1
1
1
1
1
1
1
1
1
1
1
1
1
1
1
1
1
1
1
1
1
1
1
1
1
1
1
1
1
1
1
1
1
1
1
1
1
1
1
1
1
1
1
1
1
1
1
1
1
1
1
1
1
1
1
1
1
1
1
1
1
1
1
1
1
1
1
1
1
1
1
1
1
1
1
1
1
1
1
1
1
1
1
1
1
1
1
1
1
1
1
1
1
1
1
1
1
1
1
1
1
1
1
1
1
1
1
1
1
1
1
1
1
1
1
1
1
1
1
1
1
1
1
1
1
1
1
1
1
1
1
1
1
1
1
1
1
1
1
1
1
1
1
1
1
1
1
1
1
1
1
1
1
1
1
1
1
1
1
1
1
1
1
1
1
1
1
1
1
1
1
1
1
1
1
1
1
1
1
1
1
1
1
1
1
1
1
1
1
1
1
1
1
1
1
1
1
1
1
1
1
1
1
1
1
1
1
1
1
1
1
1
1
1
1
1
1
1
1
1
1
1
1
1
1
1
1
1
1
1
1
1
1
1
1
1
1
1
1
1
1
1
1
1
1
1
1
1
1
1
1
1
1
1
1
1
1
1
1
1
1
1
1
1
1
1
1
1
1
1
1
1
1
1
1
1
1
1
1
1
1
1
1
1
1
1
1
1
1
1
1
1
1
1
1
1
1
1
1
1
1
1
1
1
1
1
1
1
1
1
1
1
1
1
1
1
1
1
1
1
1
1
1
1
1
1
1
1
1
1
1
1
1
1
1
1
1
1
1
1
1
1
1
1
1
1
1
1
1
1
1
1
1
1
1
1
1
1
1
1
1
1
1
1
1
1
1
1
1
1
1
1
1
1
1
1
1
1
1
1
1
1
1
1
1
1
1
1
1
1
1
1
1
1
1
1
1
1
1
1
1
1
1
1
1
1
1
1
1
1
1
1
1
1
1
1
1
1
1
1
1
1
1
1
1
1
1
1
1
1
1
1
1
1
1
1
1
1
1
1
1
1
1
1
1
1
1
1
1
1
1
1
1
1
1
1
1
1
1
1
1
1
1
1
1
1
1
1
1
1
1
1
1
1
1
1
1
1
1
1
1
1
1
1
1
1
1
1
1
1
1
1
1
1
1
1
1
1
1
1
1
1
1
1
1
1
1
1
1
1
1
1
1
1
1
1
1
1
1
1
1
1
1
1
1
1
1
1
1
1
1
1
1
1
1
1
1
1
1
1
1
1
1
1
1
1
1
1
1
1
1
1
1
1
1
1
1
1
1
1
1
1
1
1
1
1
1
1
1
1
1
1
1
1
1
1
1
1
1
1
1
1
1
1
1
1
1
1
1
1
1
1
1
1
1
1
1
1
1
1
1
1
1
1
1
1
1
1
1
1
1
1
1
1
1
1
1
1
1
1
1
1
1
1
1
1
1
1
1
1
1
1
1
1
1
1
1
1
1
1
1
1
1
1
1
1
1
1
1
1
1
1
1
1
1
1
1
1
1
1
1
1
1
1
1
1
1
1
1
1
1
1
1
1
1
1
1
1
1
1
1
1
1
1
1
1
1
1
1
1
1
1
1
1
1
1
1
1
1
1
1
1
1
1
1
1
1
1
1
1
1
1
1
1
1
1
1
1
1
1
1
1
1
1
1
1
1
1
1
1
1
1
1
1
1
1
1
1
1
1
1
1
1
1
1
1
1
1
1
1
1
1
1
1
1
1
1
1
1
1
1
1
1
1
1
1
1
1
1
1
1
1
1
1
1
1
1
1
1
1
1
1
1
1
1
1
1
1
1
1
1
1
1
1
1
1
1
1
1
1
1
1
1
1
1
1
VECTORS force double
0.622145 0 3.36762
-5.72815 0 15.0447
-1.34413 0 16.4504
32.0725 0 -2.48652
-20.5327 0 -5.77654
27.8046 0 -31.6931
-26.6067 0 -13.8363
91.6206 0 -50.4631
14.3083 0 7.54426
-6.0747 0 1.32336
16.9821 0 3.32206
-49.7556 0 4.12553
-7.22521 0 -3.73385
-27.3464 0 -24.8121
9.74975 0 9.28571
2.56529 0 1.48195
-57.1026 0 -89.7108
-84.0753 0 -16.5096
0 0 0
7.575 0 17.8871
17.7084 0 8.1622
-6.41123 0 11.1381
23.1854 0 -21.3142
-19.5069 0 -11.9371
-3.10871 0 16.9708
4.56317 0 1.54903
12.6324 0 -0.48091
-7.70046 0 17.0699
2.37836 0 13.1824
21.0723 0 -55.3481
-3.65966 0 -13.1384
-13.7792 0 13.3154
7.10462 0 19.0684
-10.7146 0 -5.40696
-6.33632 0 0.559761
3.16305 0 16.948
19.3072 0 -12.0496
-20.822 0 -19.6348
6.45953 0 10.3056
-17.7254 0 8.20913
-5.5647 0 20.0754
0 0 0
-21.0476 0 -35.7635
-21.5548 0 -56.4364
-3.76384 0 2.04873
-9.35891 0 9.03337
37.0978 0 -12.8355
7.90129 0 -2.02498
54.3567 0 5.25883
-16.4978 0 4.48661
5.99749 0 0.950917
-13.6332 0 8.83509
-93.6403 0 -51.1948
27.7859 0 -15.9879
-28.6415 0 -32.2277
21.7045 0 -6.61265
-32.035 0 -2.37011
1.51525 0 16.3647
5.59496 0 15.1117
-0.650346 0 3.44781
11.3527 0 3.84173
-40.3473 0 -15.2687
-53.4649 0 19.4784
30.162 0 19.7387
-57.8574 0 -89.264
-0.426321 0 -13.7459
-67.9542 0 79.977
-31.5774 0 16.1592
-4.02562 0 -20.5523
39.1886 0 12.6113
-6.71092 0 13.3495
29.0995 0 10.8224
27.7244 0 18.4187
-20.3478 0 -13.2543
7.23629 0 85.2983
12.4391 0 -0.972716
12.6049 0 23.2642
-4.14472 0 10.157
11.7319 0 6.67928
-3.44113 0 70.9868
-7.12219 0 -9.43096
0 0 0
9.8113 0 0.0285534
-3.11817 0 -22.9294
-3.64011 0 6.60282
1.52801 0 -12.3068
-12.2466 0 1.12327
21.0349 0 10.6173
2.27831 0 0.454883
27.4923 0 17.1164
-24.5727 0 -11.1606
-1.79745 0 0.298244
-18.361 0 10.3689
12.5264 0 1.46539
-0.252654 0 -10.9009
3.14626 0 6.12079
2.95962 0 -24.0452
-0.151255 0 -57.9177
0 0 0
5.17859 0 -9.77828
-21.5394 0 -8.37155
-26.475 0 -15.024
-10.406 0 10.6099
-8.73547 0 18.0669
-23.5243 0 -8.11286
-9.40534 0 56.3931
-8.66916 0 -11.8915
-26.5147 0 12.961
-39.6021 0 -7.90973
8.15854 0 6.0689
-41.6294 0 14.664
9.02661 0 -20.1188
30.135 0 16.1485
70.5031 0 83.6427
-1.35824 0 -11.4337
58.6836 0 -93.8098
-30.3748 0 19.9378
53.3534 0 19.1783
40.8134 0 -15.4305
-11.3995 0 3.88481
11.7007 0 -13.6619
-5.32473 0 -20.7521
29.3051 0 16.632
-5.07461 0 -0.0735504
1.60891 0 -47.0153
24.0451 0 1.99104
61.9381 0 -59.813
10.8389 0 14.7075
-40.6548 0 -4.4389
11.7663 0 21.6688
-90.6467 0 -38.159
71.9186 0 -0.730056
-2.08803 0 -0.323472
12.5381 0 28.5119
5.80558 0 9.51378
-1.28883 0 -15.7762
70.143 0 -8.38523
14.2306 0 -16.4974
102.407 0 2.67641
-0.456004 0 13.1981
11.6727 0 -77.4063
9.5103 0 -5.31983
-73.142 0 -93.5575
-98.8432 0 -70.7825
0.864443 0 0.993417
-81.9763 0 44.0675
-10.6623 0 -24.037
9.75365 0 11.2842
-61.7544 0 -3.57142
16.2493 0 34.9395
4.16654 0 12.201
30.5213 0 8.32612
2.4293 0 1.22789
-11.2161 0 -58.9474
-62.49 0 0.255919
-5.02994 0 1.75594
24.4007 0 80.5375
15.49 0 64.7425
8.52334 0 6.07811
5.88638 0 -43.6903
-20.2848 0 -10.7646
65.5286 0 22.3208
38.021 0 2.22014
41.9053 0 28.0591
-12.3777 0 0.740862
1.54912 0 -2.65083
-15.7924 0 29.3564
4.01139 0 0.402913
-88.2358 0 1.80185
107.586 0 -36.8798
-8.18295 0 13.4824
37.2662 0 -4.99104
-12.3973 0 13.8132
-60.2765 0 -58.777
-23.5005 0 2.00234
-1.88965 0 -48.9381
5.32931 0 -0.109495
-29.5214 0 16.8545
5.71076 0 -21.3872
-11.6718 0 -13.9012
15.2497 0 13.7492
-32.4381 0 -3.33406
18.5819 0 -5.2195
77.964 0 -47.0187
-53.1658 0 81.1197
14.6064 0 35.1058
35.5637 0 50.3836
-13.4699 0 -41.415
25.4361 0 -14.171
22.3275 0 1.55797
48.3777 0 7.43287
-39.3881 0 -20.5299
-4.83665 0 10.3513
42.7777 0 54.9949
-19.4932 0 -92.4908
-4.70851 0 28.4767
-50.0895 0 -6.7926
-4.25969 0 23.4771
7.1885 0 -7.02195
0.552048 0 25.3114
4.32183 0 -62.3019
3.09977 0 4.55838
2.64519 0 9.1799
-1.65893 0 3.97247
12.0844 0 -1.10197
80.8926 0 72.5904
-9.56909 0 8.73635
-4.58431 0 6.81362
51.4911 0 -28.5187
10.6578 0 -0.836704
-12.6592 0 -0.201355
21.5001 0 8.63609
24.4561 0 6.60581
-8.27175 0 -28.0392
-27.7275 0 3.1146
-2.9865 0 -2.79079
47.2778 0 2.76209
1.83208 0 -10.7971
-11.5467 0 21.4766
-29.6539 0 -230.13
-83.7938 0 21.2314
-120.191 0 -77.3783
114.626 0 81.234
6.70283 0 -0.075907
-20.9673 0 0.866817
37.2684 0 -51.7693
-11.4783 0 40.0462
4.93797 0 12.9419
9.4634 0 -7.29199
-38.079 0 11.0144
-32.6851 0 -4.9159
-21.312 0 -7.20931
17.8153 0 -35.781
-38.7258 0 49.9973
-13.2789 0 32.4134
51.6073 0 85.2253
-77.4875 0 -45.5021
-19.1814 0 -5.31034
32.1548 0 -2.08485
-15.3531 0 13.8497
20.1192 0 -16.883
-1.92476 0 -13.8721
-67.9004 0 91.2772
25.8425 0 31.5315
-42.4689 0 19.7303
-10.2727 0 -26.7936
-86.9519 0 -22.1131
71.1994 0 80.8551
-4.06207 0 -5.28813
-29.8277 0 -10.8861
-9.09467 0 -1.23162
-193.775 0 12.1879
-5.08989 0 2.00381
-50.9198 0 50.9359
0.243078 0 -13.0358
-50.3237 0 -59.9559
52.13 0 -0.589613
-62.2112 0 -21.1811
-11.5216 0 47.5504
-28.4777 0 17.946
-41.0278 0 36.5945
-23.5158 0 0.442558
8.50492 0 2.42664
-39.703 0 -1.60626
101.161 0 62.0901
64.3256 0 -48.6271
-7.18819 0 7.24244
-30.4594 0 -30.3352
31.1519 0 20.5175
1.7723 0 -0.817344
-1.79701 0 -0.824264
17.8259 0 -6.83013
13.8135 0 9.01445
-1.29192 0 4.24427
-30.4089 0 25.5801
-37.4475 0 -79.3391
64.5077 0 41.2882
-16.693 0 8.35427
18.7729 0 45.5379
89.7243 0 53.4017
8.48293 0 -16.4883
-10.7273 0 222.902
25.1468 0 4.45864
4.22775 0 0.982773
29.077 0 17.5969
-7.20611 0 -6.51936
67.5123 0 -47.4629
11.3775 0 8.0993
-19.376 0 12.3178
0.048028 0 1.90733
22.0223 0 -6.42327
9.03318 0 5.80081
-78.0854 0 70.0232
85.585 0 -24.1433
11.6114 0 -31.7969
42.4441 0 23.8081
-26.1995 0 32.9398
67.2601 0 91.6263
1.92715 0 -13.9056
-19.8903 0 -17.5984
0.464528 0 26.4893
-40.9971 0 -10.8318
38.53 0 -36.4409
-10.0592 0 16.7848
-23.0395 0 -45.0415
55.9851 0 32.9615
8.24085 0 13.5423
-11.0593 0 -18.4416
-27.6977 0 -22.9347
37.6153 0 18.5225
-24.8812 0 -3.06414
-10.3391 0 -33.8409
55.3197 0 -6.6965
-13.3644 0 1.08675
-5.17002 0 -25.6374
42.7764 0 -44.6973
44.3538 0 59.0541
1.08564 0 -6.03899
61.8274 0 13.7627
57.045 0 -80.3542
3.63262 0 -51.9532
24.095 0 10.264
13.1749 0 17.6205
-7.43664 0 12.9273
-76.3021 0 15.7144
50.5838 0 49.1045
2.49836 0 -8.3944
6.84183 0 -2.07666
0.572938 0 0.958595
-10.6721 0 2.48897
-12.8776 0 5.72277
-14.8424 0 -6.18349
-9.1213 0 -34.8826
-45.0815 0 -94.3676
-28.7323 0 33.1615
6.53373 0 -34.1371
-14.6589 0 9.31281
6.00684 0 -80.07
-0.533824 0 11.2577
-23.3904 0 -2.93801
-4.5426 0 6.58784
10.1854 0 -8.49422
-35.0486 0 0.015647
2.52761 0 3.39074
-6.75703 0 -23.059
-22.8629 0 -18.7842
54.0877 0 -8.11212
12.6085 0 -1.34631
6.61724 0 -10.2277
14.3648 0 -1.30498
-34.677 0 26.0984
37.2456 0 -25.0223
10.3339 0 -18.0735
-7.5915 0 23.7496
-49.266 0 26.7216
15.3647 0 -38.9934
12.5719 0 14.0518
-38.5143 0 -34.0349
37.2773 0 -7.47507
-1.74083 0 27.5668
20.6862 0 10.0584
-67.4001 0 -19.5132
42.3376 0 32.3519
-54.4635 0 1.05811
9.27144 0 7.10046
3.39969 0 10.2951
9.54914 0 8.56945
41.6522 0 -56.167
15.5061 0 37.2959
-22.3723 0 -8.49439
-36.3051 0 -94.9409
-31.1873 0 -31.56
-0.027053 0 -12.4502
5.58277 0 23.9086
-9.00788 0 16.8322
19.4923 0 -31.4975
9.39212 0 7.80357
-13.336 0 -44.0739
-52.7735 0 75.4787
11.9757 0 3.14372
-42.6382 0 1.03864
12.8047 0 -4.26689
23.8139 0 -8.17328
10.2525 0 13.8934
-13.1016 0 15.309
13.2042 0 -23.9541
-11.5833 0 -1.81993
6.05458 0 31.0793
14.0398 0 -3.52776
-14.6204 0 7.99457
-1.98287 0 -7.17257
2.26635 0 -16.6982
25.4043 0 -5.47984
8.71165 0 65.2838
3.93361 0 5.4777
-3.46352 0 -23.0267
9.12532 0 -2.25704
-56.1387 0 41.1819
-12.3158 0 -7.41048
16.8512 0 5.04695
-5.94288 0 11.5287
-10.647 0 2.61618
16.1118 0 4.92254
19.2381 0 7.92686
-8.7669 0 -38.9954
-47.8884 0 78.2829
-15.3118 0 18.0663
-7.06 0 -22.3298
-3.58002 0 -6.25376
-3.70521 0 -19.8687
36.0784 0 -19.7241
-17.6551 0 34.9173
-43.3866 0 -53.5355
-10.4389 0 7.54767
-0.537292 0 10.7563
-9.54103 0 6.64412
53.0992 0 0.337362
-39.5007 0 30.0092
56.6493 0 -15.4572
-20.5563 0 10.2227
16.9833 0 -1.58736
-5.42262 0 -10.801
43.9667 0 31.4039
23.8936 0 -15.8926
6.20667 0 -40.2424
20.2023 0 -12.632
10.279 0 -35.1664
-85.3642 0 -26.1371
35.9327 0 -49.121
-24.8599 0 -71.3355
-33.8454 0 -11.6543
53.0137 0 91.8123
-16.2596 0 46.1438
-1.59029 0 -4.34387
-19.2708 0 1.66406
-40.1897 0 -37.5655
19.5527 0 -5.39408
-2.00655 0 23.5772
1.8928 0 18.7652
-11.5609 0 -4.48424
16.3414 0 22.9893
-11.3857 0 2.05094
17.4294 0 1.01108
-0.281534 0 5.13788
-6.3795 0 10.1711
-15.5277 0 2.17334
23.0529 0 -13.4691
4.50316 0 -33.3674
19.5156 0 6.54883
-6.76079 0 -5.67214
-3.39053 0 -0.716183
-28.9081 0 -100.171
10.1918 0 13.178
-21.8703 0 20.162
20.1074 0 -27.2616
51.5514 0 93.8745
5.96104 0 -2.35503
11.3511 0 12.1615
5.637 0 1.69329
9.84061 0 -18.252
21.5425 0 -24.6914
-12.0754 0 26.1625
57.5077 0 -60.9378
-25.2386 0 -9.75425
-16.0022 0 9.06104
16.0284 0 3.53263
-4.20292 0 0.393221
10.8353 0 9.77286
-11.9434 0 5.67969
46.556 0 -59.7656
11.3982 0 -25.8652
-24.1221 0 -53.3938
75.9096 0 -26.6934
-4.13803 0 -47.5848
-27.1161 0 -21.2507
-7.63255 0 -37.4191
-24.7001 0 -16.0256
-31.5331 0 18.7852
4.90545 0 -5.23716
-16.4495 0 -1.5087
-46.0915 0 -18.157
64.947 0 24.6919
-33.4511 0 0.956792
-40.4433 0 35.8071
-19.718 0 40.9035
-4.76407 0 17.3233
54.3926 0 -58.5186
-9.95719 0 -22.6586
-8.02194 0 74.2447
38.1935 0 59.4222
-10.9193 0 38.383
29.8153 0 53.3619
11.6795 0 25.6534
23.8253 0 34.629
-2.90812 0 5.84224
238.006 0 30.8318
16.5573 0 -4.5296
-3.09357 0 -5.78248
27.9661 0 18.613
-17.2403 0 -7.50959
0.614446 0 -11.8052
-13.5085 0 9.33546
2.27358 0 -28.7691
-7.6664 0 -10.1539
-26.5314 0 46.6245
-12.9856 0 -14.1654
10.4696 0 11.5929
-8.60883 0 -4.11426
-6.33931 0 -6.562
18.2366 0 -2.72046
8.44031 0 19.9941
19.8992 0 4.38673
-29.1833 0 80.4297
7.86975 0 1.67294
-16.7911 0 31.5081
99.1933 0 -9.03609
4.10395 0 -15.223
17.3329 0 -0.026525
-4.82541 0 -17.7593
-20.3489 0 -28.5378
-3.51093 0 9.53766
-50.4148 0 -11.3867
-3.9432 0 8.10275
-19.928 0 -10.2277
7.26674 0 -19.1432
8.50193 0 11.2267
-20.2665 0 13.1665
-28.0979 0 91.7794
-17.2675 0 13.0934
7.80803 0 43.9513
-42.4725 0 58.7092
6.33605 0 78.1095
0.510995 0 -18.3405
-58.4883 0 -73.2655
76.9098 0 21.1082
20.5413 0 27.8347
39.1378 0 40.367
36.7498 0 0.950615
-62.4533 0 22.1041
42.7854 0 -16.8026
-4.32856 0 0.0869186
12.0043 0 -11.8744
-8.46547 0 14.4592
-7.6555 0 -38.3525
5.07583 0 -8.33827
-17.6659 0 -2.37062
1.04596 0 -3.17963
-102.278 0 24.1136
100.816 0 -13.5967
-56.9017 0 46.9416
44.2408 0 -45.2434
22.2041 0 20.1266
4.80761 0 1.28593
-23.4541 0 8.6284
30.776 0 7.39234
-5.112 0 4.68731
-5.53536 0 -10.8855
-7.66777 0 12.1263
-10.3371 0 -1.84135
11.4184 0 -12.935
-6.98896 0 -35.8458
-3.39516 0 -15.2211
-20.519 0 -2.04707
1.40697 0 11.4083
42.143 0 -32.5686
23.5949 0 -39.9585
7.10033 0 16.2313
-25.2703 0 28.2641
65.8484 0 16.8668
-18.2037 0 2.8361
27.2769 0 -13.3702
13.0762 0 -9.92466
32.3904 0 24.2784
-12.7952 0 -8.79154
-2.36483 0 3.42147
-5.36817 0 -0.416893
11.5813 0 8.30774
25.1601 0 25.8025
6.13366 0 -0.997422
3.37769 0 -0.970089
-5.00289 0 3.75977
-12.3689 0 44.2066
37.5356 0 -42.4886
22.7317 0 -8.94279
6.74519 0 12.1009
6.01417 0 18.7385
-2.01715 0 -0.0609764
-0.147861 0 -3.09376
-10.69 0 24.833
-56.7743 0 -53.7265
74.2418 0 34.7373
4.65121 0 19.1614
-68.094 0 22.6026
-1.90481 0 -6.2777
17.0669 0 -2.55857
-2.19967 0 -8.68992
-0.390814 0 -26.6778
8.71358 0 14.7507
-12.3761 0 -11.9639
3.59403 0 0.733383
-21.0587 0 -46.9365
-63.7789 0 1.56944
60.9852 0 135.848
13.164 0 -164.764
-10.6685 0 34.1676
-4.49579 0 -14.643
20.6095 0 34.4018
-11.9061 0 -81.3307
41.0653 0 19.1501
-2.81432 0 -10.6625
-19.5871 0 13.3001
25.72 0 -4.33501
-18.9006 0 8.2925
21.2844 0 -6.45382
-28.4081 0 15.5327
-11.4169 0 -26.6188
35.0704 0 19.8271
-1.64908 0 23.8187
-8.70307 0 10.857
-15.3465 0 -26.2708
-6.27385 0 23.6564
8.98339 0 -33.3791
-3.93479 0 13.4791
4.14703 0 7.80555
-18.8407 0 39.6587
-0.93119 0 17.1664
15.1556 0 -0.373676
-47.3226 0 -9.22993
102.335 0 -20.6421
-22.7454 0 -9.59711
10.0204 0 10.991
8.99745 0 -3.63053
-13.982 0 11.5299
-27.3241 0 -21.6187
-78.8463 0 58.1431
-20.1246 0 -19.0131
-4.82954 0 4.88307
-0.284505 0 -0.790027
71.0238 0 -10.5038
-20.2295 0 -10.7174
19.9827 0 -0.642954
-22.1672 0 63.8705
-10.576 0 5.4484
3.61317 0 -8.11297
19.7228 0 -23.1222
12.7556 0 -3.11413
-22.0985 0 -11.3817
19.3847 0 6.49739
0.63214 0 0.576654
-4.874 0 -5.51063
5.11718 0 -17.7492
25.2392 0 -44.3151
14.3684 0 -36.3092
-31.2718 0 50.4226
30.2451 0 -38.7735
12.356 0 36.4509
-11.1408 0 -178.376
-62.0206 0 156.123
62.1856 0 -22.4907
4.18732 0 -64.6559
5.34153 0 9.57293
16.1559 0 2.92299
-18.9313 0 -42.1148
-11.6668 0 25.8825
27.4045 0 7.42787
13.166 0 -8.86018
-1.87412 0 -6.34332
-49.4088 0 48.6352
38.6816 0 -10.37
0.692523 0 -1.01123
14.9908 0 -7.41495
-9.55311 0 -11.3302
4.26584 0 -4.33797
-47.0557 0 -39.3119
-15.1272 0 4.98621
38.1879 0 10.3112
-7.31468 0 15.7888
3.13213 0 -10.7846
23.0565 0 17.2675
-25.284 0 13.4978
-2.46582 0 32.1293
33.6973 0 -30.9013
-51.4609 0 -9.95554
-3.81348 0 0.822853
-10.4038 0 12.6572
-14.1754 0 -16.3879
35.7997 0 8.34497
-23.3732 0 9.39984
-41.0657 0 0.050202
-10.4174 0 4.35118
0.937284 0 -0.816551
15.5054 0 -13.4449
-33.8133 0 -32.0953
-1.4241 0 -15.0957
39.5238 0 -0.0600954
-52.3715 0 42.6693
1.31338 0 -21.3457
39.2227 0 -26.6627
36.3121 0 -44.4638
-5.20692 0 -13.3305
-13.8909 0 -2.08593
-6.17572 0 5.74892
-5.49757 0 -7.06038
-3.97788 0 26.5629
-15.663 0 6.82448
-13.5856 0 -5.47091
23.9307 0 6.17649
-6.24334 0 -4.10554
6.41519 0 -9.24801
-58.1823 0 -1.38237
0.320478 0 -2.63523
-32.5481 0 78.6986
21.2502 0 11.4454
11.2386 0 -3.87745
-8.43381 0 -4.6617
-33.5643 0 6.56174
14.1952 0 12.2052
2.45434 0 -41.5123
-17.4303 0 21.817
1.45079 0 14.9929
6.02683 0 3.36331
-11.5143 0 -5.69733
66.9636 0 11.8886
44.813 0 -65.4209
16.1406 0 14.0695
11.606 0 -9.36826
7.12174 0 -5.90431
-4.61192 0 -25.5786
-31.6887 0 22.5881
-2.11355 0 12.3762
-17.9922 0 -13.0863
13.8705 0 -17.7474
-3.39566 0 -0.373053
-0.58192 0 -12.018
39.5912 0 32.2136
3.37473 0 -47.3819
-10.9369 0 9.94427
14.6289 0 5.0873
9.85031 0 -7.98585
8.98547 0 22.3401
-11.0124 0 -43.287
0.626773 0 -0.681908
-35.1684 0 29.0413
-10.1911 0 -3.24912
-6.55745 0 -17.592
-21.4268 0 35.5612
8.6047 0 -16.7028
-1.27875 0 -23.0901
-52.6109 0 -0.804117
3.24115 0 -8.03521
-16.0891 0 14.0887
-16.9338 0 1.44558
4.34538 0 -12.804
-47.7051 0 -14.8958
6.23645 0 45.3687
9.41025 0 -11.8038
-12.3627 0 22.8357
3.01166 0 7.60132
7.06417 0 -5.76848
-17.5771 0 12.3998
40.1318 0 6.16068
-7.06005 0 -43.7839
-9.8479 0 6.51038
10.4784 0 -11.3345
54.9069 0 3.41156
-1.99964 0 -2.13861
-2.81917 0 -8.28362
0.0450605 0 -0.0435009
0.917038 0 8.07235
51.6792 0 21.7293
2.43068 0 -19.6458
6.39859 0 -0.89635
-0.611925 0 -90.0511
-33.2135 0 -66.6759
-10.3818 0 -8.84569
-5.521 0 23.1906
-59.4306 0 -14.4469
-0.19431 0 18.2935
5.77457 0 -0.0925652
-2.50685 0 -1.89709
1.10973 0 1.89993
-52.6898 0 17.909
-50.8199 0 -86.2442
-58.596 0 93.5562
21.1873 0 36.6701
-32.224 0 17.9471
5.87752 0 1.00911
26.9338 0 15.5802
-8.86423 0 -21.0234
-133.158 0 46.4763
8.51017 0 26.5146
2.18668 0 -3.59372
-3.0167 0 31.0406
-8.13392 0 8.46558
6.06153 0 -18.3248
9.6943 0 9.49041
-13.0894 0 -13.8223
-0.860823 0 0.567446
7.99144 0 7.2758
-14.2803 0 -25.0488
-18.1953 0 0.278878
-5.23992 0 -17.1027
-6.15102 0 -0.243255
27.0546 0 -8.88871
5.30789 0 3.68486
0.280284 0 1.02914
-5.84037 0 -0.669474
3.51022 0 14.5712
-1.20831 0 -4.58029
13.2345 0 9.75076
-1.84841 0 11.3027
5.71702 0 5.90771
51.5906 0 13.4342
24.9791 0 5.61903
-45.517 0 10.1059
49.2617 0 56.1045
15.5446 0 46.3719
-0.521865 0 -8.65381
-4.78652 0 15.774
-8.91266 0 9.05823
11.4047 0 5.96844
-1.9592 0 20.1912
2.63259 0 -9.01193
-6.37104 0 -6.68616
-38.9964 0 -38.7459
-8.87878 0 -17.4142
15.7379 0 -1.33912
1.29819 0 -16.9645
-7.35474 0 -4.65817
-53.6614 0 61.971
102.709 0 62.1439
-19.6419 0 0.164113
-2.8483 0 10.0739
-26.4019 0 -2.95529
32.3805 0 85.924
2.87886 0 -14.1536
45.5805 0 63.6934
-66.2458 0 -6.18862
-10.8998 0 1.03968
67.2682 0 23.3987
17.5176 0 9.42474
-33.1298 0 49.8279
-3.64231 0 -4.90359
94.0725 0 37.4138
19.9808 0 -58.0121
-18.6337 0 -6.43499
11.6984 0 17.8958
-7.76724 0 15.1186
-3.95811 0 -38.3161
4.33662 0 -22.3325
-3.74463 0 10.2796
126.443 0 -39.837
-39.2539 0 17.1674
-6.3787 0 -14.6642
-10.6992 0 7.17994
26.5841 0 -4.11863
12.3516 0 -14.9944
-6.35511 0 -36.6144
2.87936 0 10.3723
14.5464 0 14.2283
17.9396 0 -30.6262
-1.26945 0 39.6164
-33.6679 0 -39.7655
-16.9795 0 6.70471
14.3297 0 21.0416
-3.59902 0 -10.8102
-9.84434 0 -12.4704
-2.98739 0 16.7443
-0.0304945 0 -5.24817
-12.1121 0 0.395157
8.42223 0 3.14113
-6.80309 0 -12.7597
-6.18194 0 -63.7605
0.841195 0 -25.5933
14.9081 0 8.49906
-39.4601 0 -42.3749
12.879 0 28.9763
13.5195 0 -0.977129
2.42074 0 -13.3447
-29.7395 0 -1.72629
-23.4082 0 -13.2624
-7.57983 0 8.13542
-22.1325 0 -27.8798
-14.0432 0 -14.099
21.6385 0 10.1422
6.14481 0 -16.6445