# vtk DataFile Version 3.0
SiWiRVisFile
ASCII
DATASET UNSTRUCTURED_GRID
POINTS 1600 DOUBLE
75.368 100 71.8138
73.4239 100 71.7729
74.4467 100 72.3892
76.5808 100 72.0165
77.5171 100 72.6659
78.5821 100 73.2388
79.6053 100 72.7781
80.6955 100 73.4929
81.7401 100 73.7685
80.5108 100 72.2469
93.4954 100 61.5165
92.4648 100 61.769
93.1378 100 62.6502
91.5226 100 61.2697
80.5842 100 63.3229
89.0637 100 55.946
91.7228 100 54.1526
89.283 100 51.7605
83.8783 100 42.9228
94.2197 100 47.3287
108.061 100 20.7536
108.076 100 19.562
107.288 100 18.8484
108.143 100 17.2427
106.747 100 21.6868
111.706 100 20.762
110.794 100 11.8202
115.964 100 12.7688
110.065 100 15.5026
110.071 100 14.2623
111.669 100 13.7847
112.866 100 13.7881
110.629 100 13.3108
113.794 100 13.1059
114.395 100 17.7227
116.317 100 22.0237
116.409 100 16.851
115.435 100 20.2311
114.337 100 20.205
115.089 100 21.3332
133.856 100 49.4069
140.614 100 42.9228
131.983 100 51.4959
133.433 100 52.9051
135.479 100 51.4475
135.282 100 65.9477
133.848 100 61.7884
133.616 100 63.9645
132.588 100 61.5525
132.683 100 62.6196
143.069 100 72.3375
141.811 100 73.854
143.078 100 73.4545
144.02 100 72.934
146.034 100 73.156
147.107 100 72.7122
148.155 100 72.1474
150.56 100 72.4571
151.84 100 71.9658
149.66 100 71.843
72.2605 100 72.3833
73.4494 100 72.9394
75.6641 100 72.9764
76.6364 100 73.1844
77.5867 100 73.8032
79.578 100 73.8153
80.7831 100 74.5601
81.7414 100 74.9968
82.6722 100 74.3583
83.8097 100 74.9292
84.7655 100 74.333
92.634 100 60.6907
91.6814 100 62.4759
91.4297 100 58.5564
89.8743 100 55.0201
91.131 100 59.7619
91.2661 100 52.8651
90.4372 100 52.0682
92.1442 100 51.4154
95.6399 100 48.7589
106.88 100 20.3805
94.8647 100 29.157
107.375 100 34.7068
108.598 100 18.5372
109.242 100 19.511
112.225 100 19.8245
113.109 100 19.1613
112.024 100 18.6781
105.609 100 6.35649
111.109 100 14.8677
112.333 100 14.7025
119.47 100 6.45817
113.683 100 16.9336
115.703 100 15.8771
115.467 100 19.019
115.659 100 17.9121
114.25 100 15.7201
119.287 100 34.8343
129.671 100 29.0917
116.479 100 20.6503
128.207 100 48.8536
130.024 100 49.0322
132.988 100 50.0645
134.969 100 52.6268
133.45 100 60.79
133.831 100 54.5573
132.121 100 57.3948
133.751 100 62.9367
131.552 100 61.385
139.624 100 74.5686
140.865 100 74.3099
141.742 100 74.965
142.785 100 74.5256
143.948 100 74.2418
144.924 100 73.6528
146.991 100 73.8579
148.056 100 73.3364
149.061 100 72.8639
151.475 100 73.0156
152.843 100 72.6866
72.6314 100 73.5769
73.6898 100 74.0491
74.7519 100 73.4923
75.8658 100 74.0224
76.7587 100 74.5769
78.6901 100 74.325
79.8124 100 74.9794
80.7777 100 75.6534
81.8373 100 76.1197
82.7863 100 75.4761
84.8902 100 75.5497
83.7649 100 77.2361
86.0496 100 76.2154
92.4133 100 59.6448
90.2694 100 58.3077
92.5536 100 56.0237
92.7765 100 53.8585
92.5866 100 52.6644
93.998 100 50.1053
94.6502 100 48.4572
95.5524 100 47.6054
104.664 100 35.0404
106.326 100 35.0444
106.755 100 36.6177
94.3326 100 32.3403
107.47 100 35.7306
107.44 100 33.2239
106.497 100 33.8658
111.919 100 15.6854
112.471 100 16.6088
113.141 100 15.6449
113.718 100 14.6854
121.586 100 35.4713
115.842 100 31.5586
118.113 100 34.5963
120.48 100 35.5074
118.787 100 35.8151
119.946 100 36.3881
121.106 100 36.7526
127.131 100 48.0285
134.245 100 50.3767
130.864 100 50.5572
134.463 100 51.6491
133.135 100 51.6093
132.604 100 55.3
132.185 100 56.3627
132.202 100 60.3764
139.096 100 75.6409
139.737 100 76.5173
140.398 100 75.6413
141.483 100 76.0053
142.593 100 75.7325
143.591 100 75.2226
144.915 100 74.684
145.979 100 74.2528
147.905 100 74.5182
149.028 100 74.003
150.211 100 73.5914
151.133 100 74.2805
152.48 100 73.8427
72.5527 100 74.6872
73.6305 100 75.1954
74.6849 100 74.5477
75.7402 100 75.2044
77.7402 100 75.1227
78.7503 100 75.5805
79.685 100 76.3361
80.8101 100 76.6794
82.8326 100 76.6226
83.7815 100 76.026
83.7422 100 78.1814
84.9643 100 76.6597
86.4489 100 75.0431
92.2645 100 57.8621
91.1234 100 57.5207
89.9789 100 57.3065
92.469 100 54.8299
91.2723 100 55.2847
93.5931 100 53.1081
93.2781 100 51.8006
93.6908 100 48.92
96.5971 100 48.1691
105.562 100 34.286
104.167 100 39.0034
105.863 100 36.0912
105.944 100 37.3869
108.331 100 37.9441
109.739 100 37.4181
108.301 100 33.9747
112.778 100 17.8503
114.971 100 16.6079
112.617 100 30.2553
115.975 100 37.0865
117.065 100 36.5599
118.074 100 36.8046
120.354 100 37.5425
119.16 100 37.1791
119.317 100 33.7439
126.946 100 49.1342
129.771 100 50.8804
130.309 100 51.9087
132.633 100 54.0782
131.612 100 54.4532
131.459 100 55.5741
131.132 100 56.6908
132.878 100 59.4816
131.866 100 59.1106
138.53 100 74.407
139.481 100 77.665
140.575 100 77.0432
141.727 100 77.0697
142.849 100 76.9142
143.732 100 76.3111
144.728 100 75.7764
145.9 100 75.3798
146.941 100 75.0482
148.968 100 75.0695
150.014 100 74.6843
150.97 100 75.3806
152.073 100 74.863
72.7533 100 75.8454
73.7805 100 76.3446
74.6986 100 75.6828
76.8977 100 75.7331
77.8601 100 76.3084
78.748 100 76.8342
79.6762 100 77.445
80.7313 100 77.8392
81.672 100 77.2514
82.7264 100 77.7715
83.9513 100 79.3063
87.0122 100 77.4569
87.1938 100 76.3829
94.6563 100 55.5406
91.5921 100 56.6173
90.4805 100 56.2179
95.1366 100 54.5416
94.6613 100 53.4057
94.1544 100 51.188
95.5203 100 51.867
95.2125 100 50.8305
102.25 100 44.4145
104.975 100 38.0819
107.403 100 38.679
107.138 100 37.6228
108.512 100 39.0302
109.439 100 38.4292
110.498 100 38.2522
107.929 100 36.9292
110.603 100 20.2588
109.538 100 20.7215
116.982 100 34.5934
113.021 100 35.8071
114.783 100 37.9746
117.038 100 37.7422
117.741 100 35.6898
118.169 100 37.9188
118.132 100 39.0901
123.762 100 44.8936
129.406 100 48.0465
129.098 100 50.0564
129.211 100 52.013
132.397 100 52.5561
130.532 100 54.3892
129.417 100 54.6515
130.618 100 59.0226
131.19 100 57.905
138.571 100 76.6538
138.765 100 78.8518
140.822 100 79.9892
141.111 100 78.04
142.583 100 78.0014
143.736 100 77.4624
144.692 100 76.8935
145.714 100 76.4723
146.754 100 76.1018
147.878 100 75.5749
149.973 100 75.8947
150.952 100 76.489
151.912 100 75.9333
72.8371 100 76.9712
73.9829 100 77.4699
74.8822 100 76.825
75.9429 100 76.268
76.9109 100 76.891
77.8208 100 77.5749
78.6751 100 78.4439
79.85 100 78.5692
80.7998 100 78.9736
81.7576 100 78.471
82.8578 100 78.8776
84.7432 100 77.8009
86.5595 100 78.4911
86.3037 100 73.9742
89.2812 100 75.3397
93.4748 100 55.4056
95.8721 100 55.3797
97.1104 100 55.4207
96.2152 100 54.2574
94.4552 100 52.2484
96.2818 100 50.9652
97.4644 100 48.8874
102.603 100 43.2764
103.49 100 41.6195
106.024 100 38.4881
106.41 100 39.5734
107.827 100 41.1073
109.571 100 39.622
111.567 100 38.4332
110.743 100 36.7111
114.811 100 36.8111
113.435 100 36.9317
115.957 100 38.1704
114.87 100 39.0262
117.07 100 38.8426
119.258 100 38.2286
119.325 100 39.2823
124.143 100 43.6035
126.622 100 50.3352
127.827 100 49.9193
128.582 100 51.1093
131.591 100 53.3722
128.39 100 55.1762
129.317 100 55.9864
130.362 100 55.4942
137.875 100 75.5056
141.481 100 69.9204
138.44 100 79.9588
140.011 100 78.5307
142.616 100 79.1381
143.61 100 78.5056
144.53 100 79.1977
144.663 100 78.1191
145.627 100 77.6366
146.723 100 77.232
147.727 100 76.8159
148.938 100 76.257
149.82 100 77.0025
150.778 100 77.6278
151.813 100 77.1705
71.3311 100 77.3274
72.7905 100 78.044
74.9384 100 77.9994
75.8606 100 77.4413
76.7092 100 78.055
77.1495 100 80.316
78.3687 100 79.5848
80.0004 100 79.8512
81.0237 100 80.1251
82.125 100 79.6984
86.2569 100 79.6412
85.821 100 77.6015
87.7089 100 79.9048
87.8454 100 75.358
93.8838 100 56.3781
93.8386 100 54.2965
95.291 100 56.3925
98.2705 100 55.1456
95.882 100 52.9422
96.6306 100 52.1324
96.3031 100 49.799
100.11 100 50.0976
103.734 100 43.7604
105.304 100 39.2833
110.322 100 42.6684
108.702 100 40.2286
104.511 100 44.5412
109.718 100 40.6575
103.996 100 45.6942
105.593 100 44.3691
120.225 100 45.5184
117.836 100 45.3462
115.156 100 40.3185
116.815 100 44.2511
117.294 100 41.7041
115.995 100 39.4793
117.25 100 39.9684
121.301 100 45.4118
123.361 100 45.9266
127.478 100 50.9504
127.984 100 52.0638
129.771 100 53.1062
127.764 100 54.0806
127.923 100 56.22
130.089 100 56.8102
129.946 100 57.9501
137.408 100 74.5532
131.37 100 76.2307
139.59 100 79.5248
142.479 100 80.1485
143.498 100 79.7727
144.525 100 80.3976
145.488 100 79.7676
146.574 100 78.9078
147.592 100 79.4071
147.702 100 77.9912
148.701 100 77.3794
149.733 100 78.1844
151.629 100 78.333
152.864 100 77.4212
71.8759 100 78.7253
72.8837 100 79.175
74.1355 100 78.8167
75.0002 100 79.3677
75.7543 100 78.6997
75.9577 100 79.8531
76.8178 100 79.1693
79.0189 100 80.4295
80.3908 100 81.1767
81.4591 100 81.1601
82.4584 100 80.7794
82.3184 100 82.0311
85.6061 100 78.6871
85.0628 100 79.5979
83.2954 100 82.5058
90.0133 100 78.0715
94.7549 100 58.7032
96.4847 100 56.3921
98.5012 100 53.8106
97.3147 100 54.2263
97.5605 100 53.1548
97.6283 100 51.4116
103.396 100 44.854
104.519 100 40.0339
107.713 100 39.7984
109.666 100 41.8853
106.75 100 40.5032
103.674 100 47.0014
105.717 100 46.3109
107.4 100 47.0802
118.998 100 45.177
120.939 100 46.4575
121.861 100 47.0494
118.469 100 42.0505
117.644 100 42.6909
118.024 100 40.9446
118.695 100 40.0768
122.621 100 44.9632
125.779 100 51.0503
128.593 100 53.2064
127.299 100 53.153
126.344 100 52.8154
126.819 100 55.9512
128.924 100 57.1571
131.004 100 75.2623
141.217 100 81.9629
140.585 100 81.0252
139.606 100 80.5812
141.88 100 81.1292
142.43 100 82.1103
143 100 81.2425
145.685 100 80.8597
146.723 100 81.2259
146.606 100 79.991
148.552 100 79.9789
148.627 100 78.5491
149.511 100 79.2871
150.557 100 78.7508
151.491 100 79.4771
152.723 100 78.9773
71.7915 100 79.7383
72.6596 100 80.2983
73.877 100 79.906
75.0483 100 80.4387
76.222 100 82.1632
73.7222 100 82.928
76.1711 100 81.0511
78.1074 100 80.9366
79.3603 100 81.5225
78.3868 100 82.1548
80.2139 100 82.3904
80.6108 100 83.4247
81.3612 100 82.5891
82.0722 100 83.4424
83.91 100 80.7324
87.7964 100 78.308
96.253 100 58.4548
95.9054 100 57.3744
99.3224 100 54.8457
99.9483 100 51.8335
97.8052 100 50.2812
[...]
POINT_DATA 1600
SCALARS mass double
LOOKUP_TABLE default
1
1
1
1
1
1
1
1
1
1
1
1
1
1
1
1
1
1
1
1
1
1
1
1
1
1
1
1
1
1
1
1
1
1
1
1
1
1
1
1
1
1
1
1
1
1
1
1
1
1
1
1
1
1
1
1
1
1
1
1
1
1
1
1
1
1
1
1
1
1
1
1
1
1
1
1
1
1
1
1
1
1
1
1
1
1
1
1
1
1
1
1
1
1
1
1
1
1
1
1
1
1
1
1
1
1
1
1
1
1
1
1
1
1
1
1
1
1
1
1
1
1
1
1
1
1
1
1
1
1
1
1
1
1
1
1
1
1
1
1
1
1
1
1
1
1
1
1
1
1
1
1
1
1
1
1
1
1
1
1
1
1
1
1
1
1
1
1
1
1
1
1
1
1
1
1
1
1
1
1
1
1
1
1
1
1
1
1
1
1
1
1
1
1
1
1
1
1
1
1
1
1
1
1
1
1
1
1
1
1
1
1
1
1
1
1
1
1
1
1
1
1
1
1
1
1
1
1
1
1
1
1
1
1
1
1
1
1
1
1
1
1
1
1
1
1
1
1
1
1
1
1
1
1
1
1
1
1
1
1
1
1
1
1
1
1
1
1
1
1
1
1
1
1
1
1
1
1
1
1
1
1
1
1
1
1
1
1
1
1
1
1
1
1
1
1
1
1
1
1
1
1
1
1
1
1
1
1
1
1
1
1
1
1
1
1
1
1
1
1
1
1
1
1
1
1
1
1
1
1
1
1
1
1
1
1
1
1
1
1
1
1
1
1
1
1
1
1
1
1
1
1
1
1
1
1
1
1
1
1
1
1
1
1
1
1
1
1
1
1
1
1
1
1
1
1
1
1
1
1
1
1
1
1
1
1
1
1
1
1
1
1
1
1
1
1
1
1
1
1
1
1
1
1
1
1
1
1
1
1
1
1
1
1
1
1
1
1
1
1
1
1
1
1
1
1
1
1
1
1
1
1
1
1
1
1
1
1
1
1
1
1
1
1
1
1
1
1
1
1
1
1
1
1
1
1
1
1
1
1
1
1
1
1
1
1
1
1
1
1
1
1
1
1
1
1
1
1
1
1
1
1
1
1
1
1
1
1
1
1
1
1
1
1
1
1
1
1
1
1
1
1
1
1
1
1
1
1
1
1
1
1
1
1
1
1
1
1
1
1
1
1
1
1
1
1
1
1
1
1
1
1
1
1
1
1
1
1
1
1
1
1
1
1
1
1
1
1
1
1
1
1
1
1
1
1
1
1
1
1
1
1
1
1
1
1
1
1
1
1
1
1
1
1
1
1
1
1
1
1
1
1
1
1
1
1
1
1
1
1
1
1
1
1
1
1
1
1
1
1
1
1
1
1
1
1
1
1
1
1
1
1
1
1
1
1
1
1
1
1
1
1
1
1
1
1
1
1
1
1
1
1
1
1
1
1
1
1
1
1
1
1
1
1
1
1
1
1
1
1
1
1
1
1
1
1
1
1
1
1
1
1
1
1
1
1
1
1
1
1
1
1
1
1
1
1
1
1
1
1
1
1
1
1
1
1
1
1
1
1
1
1
1
1
1
1
1
1
1
1
1
1
1
1
1
1
1
1
1
1
1
1
1
1
1
1
1
1
1
1
1
1
1
1
1
1
1
1
1
1
1
1
1
1
1
1
1
1
1
1
1
1
1
1
1
1
1
1
1
1
1
1
1
1
1
1
1
1
1
1
1
1
1
1
1
1
1
1
1
1
1
1
1
1
1
1
1
1
1
1
1
1
1
1
1
1
1
1
1
1
1
1
1
1
1
1
1
1
1
1
1
1
1
1
1
1
1
1
1
1
1
1
1
1
1
1
1
1
1
1
1
1
1
1
1
1
1
1
1
1
1
1
1
1
1
1
1
1
1
1
1
1
1
1
1
1
1
1
1
1
1
1
1
1
1
1
1
1
1
1
1
1
1
1
1
1
1
1
1
1
1
1
1
1
1
1
1
1
1
1
1
1
1
1
1
1
1
1
1
1
1
1
1
1
1
1
1
1
1
1
1
1
1
1
1
1
1
1
1
1
1
1
1
1
1
1
1
1
1
1
1
1
1
1
1
1
1
1
1
1
1
1
1
1
1
1
1
1
1
1
1
1
1
1
1
1
1
1
1
1
1
1
1
1
1
1
1
1
1
1
1
1
1
1
1
1
1
1
1
1
1
1
1
1
1
1
1
1
1
1
1
1
1
1
1
1
1
1
1
1
1
1
1
1
1
1
1
1
1
1
1
1
1
1
1
1
1
1
1
1
1
1
1
1
1
1
1
1
1
1
1
1
1
1
1
1
1
1
1
1
1
1
1
1
1
1
1
1
1
1
1
1
1
1
1
1
1
1
1
1
1
1
1
1
1
1
1
1
1
1
1
1
1
1
1
1
1
1
1
1
1
1
1
1
1
1
1
1
1
1
1
1
1
1
1
1
1
1
1
1
1
1
1
1
1
1
1
1
1
1
1
1
1
1
1
1
1
1
1
1
1
1
1
1
1
1
1
1
1
1
1
1
1
1
1
1
1
1
1
1
1
1
1
1
1
1
1
1
1
1
1
1
1
1
1
1
1
1
1
1
1
1
1
1
1
1
1
1
1
1
1
1
1
1
1
1
1
1
1
1
1
1
1
1
1
1
1
1
1
1
1
1
1
1
1
1
1
1
1
1
1
1
1
1
1
1
1
1
1
1
1
1
1
1
1
1
1
1
1
1
1
1
1
1
1
1
1
1
1
1
1
1
1
1
1
1
1
1
1
1
1
1
1
1
1
1
1
1
1
1
1
1
1
1
1
1
1
1
1
1
1
1
1
1
1
1
1
1
1
1
1
1
1
1
1
1
1
1
1
1
1
1
1
1
1
1
1
1
1
1
1
1
1
1
1
1
1
1
1
1
1
1
1
1
1
1
1
1
1
1
1
1
1
1
1
1
1
1
1
1
1
1
1
1
1
1
1
1
1
1
1
1
1
1
1
1
1
1
1
1
1
1
1
1
1
1
1
1
1
1
1
1
1
1
1
1
1
1
1
1
1
1
1
1
1
1
1
1
1
1
1
1
1
1
1
1
1
1
1
1
1
1
1
1
1
1
1
1
1
1
1
1
1
1
1
1
1
1
1
1
1
1
1
1
1
1
1
1
1
1
1
1
1
1
1
1
1
1
1
1
1
1
1
1
1
1
1
1
1
1
1
1
1
1
1
1
1
1
1
1
1
1
1
1
1
1
1
1
1
1
1
1
1
1
1
1
1
1
1
1
1
1
1
1
1
1
1
1
1
1
1
1
1
1
1
1
1
1
1
1
1
1
1
1
1
1
1
1
1
1
1
1
1
1
1
1
1
1
1
1
1
1
1
1
1
1
1
1
1
1
1
1
1
1
1
1
1
1
1
1
1
1
1
1
1
1
1
1
1
1
1
1
1
1
1
1
1
1
1
1
1
1
1
1
1
1
1
1
1
1
1
1
1
1
1
1
1
1
1
1
1
1
1
1
1
1
1
1
1
1
1
1
1
1
1
1
1
1
1
1
1
1
1
1
1
1
1
1
1
1
1
1
1
1
1
1
1
1
1
1
1
1
1
1
1
1
1
1
1
1
VECTORS force double
26.1285 0 8.46793
0.835095 0 20.7465
-15.4344 0 16.1484
-15.465 0 18.3672
72.951 0 -30.0535
-10.9116 0 -10.2698
-26.8535 0 -25.7436
-38.9531 0 -40.1597
1.19695 0 21.547
37.4842 0 -6.73087
18.4585 0 -5.41304
16.2506 0 3.10491
-1.34983 0 -8.38476
-11.2795 0 -12.1896
0 0 0
17.1083 0 -4.90147
-92.1992 0 -65.3951
10.7423 0 2.96049
0 0 0
13.0479 0 15.9617
-6.48134 0 -15.0647
28.465 0 29.2234
-11.6441 0 -18.7622
2.22518 0 10.5029
4.16654 0 -12.9949
-22.0539 0 14.9663
-0.412594 0 6.26602
-0.473622 0 0.0735826
12.117 0 -18.6303
9.70173 0 22.6855
0.401892 0 12.5841
18.7798 0 -22.1205
10.0894 0 -5.33115
-5.66755 0 8.4747
35.0008 0 15.5463
-6.42522 0 -13.5828
-20.4946 0 -0.682076
8.05523 0 -3.94947
-3.94152 0 2.72737
8.12952 0 -13.0951
-6.86647 0 -51.366
0 0 0
2.55019 0 0.465157
9.43963 0 -1.12948
50.5249 0 -3.17981
0 0 0
-10.8278 0 28.7669
-9.32573 0 53.2491
52.9211 0 -29.7869
6.02761 0 18.1642
-0.043034 0 0.488033
57.4166 0 -17.4255
-18.7361 0 20.1711
23.4277 0 7.49608
4.98353 0 1.46705
5.07756 0 8.72602
-0.00485867 0 20.6237
-7.7035 0 5.09847
1.78254 0 8.22327
-19.8632 0 4.93616
23.8739 0 11.6914
47.0321 0 -41.7633
-100.97 0 -97.2299
62.4477 0 71.7688
9.24763 0 9.68727
74.5365 0 27.6317
2.0824 0 -26.9387
34.0223 0 12.8674
13.4519 0 12.3102
-7.1039 0 -3.52219
4.69241 0 13.7107
2.19733 0 26.5607
-21.3797 0 12.8944
-15.5314 0 39.5797
5.22867 0 19.5959
16.201 0 -10.0797
12.2769 0 1.92049
-3.93683 0 1.14928
12.539 0 16.4866
62.8738 0 20.9511
17.1577 0 6.45051
0 0 0
-2.03026 0 -89.1839
-10.7482 0 6.79012
-8.60026 0 8.78634
3.56837 0 -25.3029
-3.68722 0 -15.3922
10.0656 0 13.0923
0 0 0
2.32761 0 -10.2385
-3.34887 0 13.4092
0 0 0
-28.8217 0 -37.2879
41.7423 0 -33.1867
-4.06472 0 12.3587
-8.49762 0 -16.9371
3.65338 0 7.77087
-0.531277 0 12.0135
0 0 0
-7.13951 0 9.5212
-8.98302 0 0.818525
-11.268 0 3.22475
-0.725413 0 17.9292
2.74292 0 -3.14079
-27.3723 0 -24.7858
-18.0676 0 -3.40604
12.3724 0 39.9616
9.19334 0 -64.169
-32.042 0 -14.6726
18.201 0 18.6643
-58.3325 0 24.6255
16.5007 0 -7.66006
-23.196 0 -9.6663
-23.0186 0 -71.9054
11.1503 0 -63.5618
15.6925 0 -8.52977
-8.0431 0 11.5616
14.4901 0 -4.68081
23.7179 0 36.1534
-21.7903 0 6.42159
-38.6717 0 23.8538
-8.61947 0 -1.70364
-42.2538 0 -11.3241
-46.4958 0 13.3972
27.8863 0 25.591
-73.3386 0 68.2654
-45.2896 0 17.5082
-5.54233 0 -59.9603
-11.7614 0 0.546486
-0.760394 0 5.00474
-10.7721 0 -11.0919
11.8662 0 -328.815
-4.75915 0 -0.582112
-21.8413 0 -28.6314
32.3101 0 46.0682
-3.53376 0 -7.97369
36.4864 0 -86.5679
-21.6531 0 6.49588
3.46381 0 -17.7874
-26.0276 0 -46.2537
-8.31482 0 19.0412
13.5042 0 -3.44081
14.2633 0 19.1766
56.3575 0 6.30944
0 0 0
-4.57428 0 77.4432
-1.16162 0 12.5371
78.9151 0 -12.7464
-14.1265 0 0.563479
31.2818 0 23.348
-25.4846 0 6.25684
-13.4857 0 -4.94931
0.641775 0 9.34541
0 0 0
15.1688 0 13.378
20.9627 0 -51.2635
37.202 0 26.2831
-29.2199 0 61.6389
-4.2641 0 -28.46
8.3502 0 6.60269
9.14239 0 57.2245
-4.25575 0 9.52253
-77.1929 0 -4.68277
1.24322 0 11.6481
-14.5786 0 -15.6592
25.5001 0 -49.716
4.94069 0 14.0082
-11.3485 0 -26.7135
-129.698 0 -49.1112
1.88785 0 -15.3033
-12.6402 0 15.2852
3.90646 0 5.27374
19.662 0 57.1265
35.6436 0 79.4254
-18.8206 0 20.8842
27.4893 0 -50.2479
2.29715 0 -27.932
-3.27411 0 -13.8194
-9.88962 0 -18.3814
-10.9557 0 -23.7458
22.4118 0 11.0146
20.1419 0 -12.4911
10.8034 0 46.3855
2.3701 0 -30.8263
46.9199 0 -39.43
17.0272 0 6.35878
38.8238 0 -37.8916
-56.5093 0 42.8017
-9.90437 0 6.62777
14.8973 0 19.234
-20.1474 0 335.421
-3.7426 0 16.3043
3.76995 0 37.4808
-3.19078 0 -19.0594
-50.3213 0 58.2197
0.145167 0 -59.9098
54.4234 0 165.076
8.03295 0 4.69811
14.3688 0 -7.31035
-13.0096 0 20.4125
-20.1414 0 21.2186
-10.1865 0 -0.485091
-85.6548 0 23.4608
14.6132 0 -18.4369
-45.4589 0 -27.0649
2.45289 0 -6.65351
-0.956975 0 10.7304
14.6729 0 -38.6298
-13.9045 0 4.05444
11.5739 0 -10.8771
-52.5856 0 58.3199
0 0 0
6.69604 0 -12.3923
-65.5885 0 8.97221
58.446 0 2.76377
-34.7505 0 -0.134753
-11.4169 0 -35.5931
-4.8461 0 -7.38449
15.6845 0 17.7346
9.03365 0 40.5648
2.54748 0 -3.72885
15.7004 0 -5.40849
10.2051 0 35.3399
-4.66584 0 -17.0167
40.5291 0 1.89136
20.9338 0 13.7309
-31.9867 0 -6.78531
-8.9897 0 19.2912
-44.4894 0 -89.6438
124.528 0 74.3204
5.45811 0 20.4298
-68.0446 0 -24.5294
14.3887 0 -5.44715
6.60467 0 0.170205
-31.0461 0 -6.8856
-18.6897 0 -52.069
-15.1209 0 43.2452
9.8491 0 11.36
-9.16324 0 -17.7201
-8.46038 0 -1.25367
-4.77625 0 1.9779
6.77025 0 -0.135417
2.79977 0 2.84963
-44.1372 0 20.1111
-48.1906 0 -36.0732
14.3809 0 42.5128
6.72222 0 10.6887
1.74319 0 5.24767
72.0345 0 36.4037
-18.9706 0 -15.6017
-3.17588 0 -2.94779
-11.4018 0 16.9747
0.920581 0 -26.2517
-24.0576 0 -25.649
31.6124 0 -80.8945
4.91438 0 0.581236
-16.7242 0 -17.9842
10.7856 0 6.89439
22.8747 0 -6.42637
8.82939 0 13.2655
-26.6857 0 -23.9122
21.2015 0 0.749476
5.98748 0 15.4006
4.68854 0 21.5542
-31.852 0 38.8525
3.66065 0 21.3352
-38.4017 0 43.7341
3.76333 0 -9.11995
9.77038 0 -48.3566
2.4374 0 4.41002
-2.75508 0 -15.7427
9.36915 0 9.93282
4.24526 0 10.753
11.658 0 -47.2736
-4.95521 0 -23.4383
-33.0517 0 -16.7902
1.14097 0 7.16248
21.3474 0 1.73812
-1.34765 0 -12.67
-2.27988 0 11.7319
-31.7955 0 -25.3606
-9.18781 0 14.5363
-8.93263 0 -6.4829
-17.2443 0 -5.28526
5.30617 0 13.2017
12.2207 0 -20.2728
-43.3818 0 17.2954
3.04578 0 -5.91935
-21.2831 0 -19.7025
-6.82156 0 -28.4555
-4.13837 0 -2.78775
1.98324 0 -6.79701
37.4137 0 -12.623
3.88754 0 19.6028
-1.99967 0 11.9576
21.6341 0 26.5717
25.0288 0 63.8245
5.73149 0 -19.3529
-27.8705 0 9.59851
8.46256 0 32.8954
10.8787 0 -19.4356
-32.9439 0 1.63914
9.70478 0 -7.53753
-17.9382 0 35.4492
-14.6248 0 6.51717
2.84648 0 -7.4719
4.6998 0 -5.9648
-63.0231 0 -20.6996
42.2087 0 46.6755
24.2433 0 -17.377
5.87469 0 -4.19333
20.3552 0 -4.13972
196.223 0 -36.8373
-6.63874 0 -16.5735
-13.3191 0 11.5608
-4.32419 0 -50.7104
6.35505 0 10.6061
-88.6918 0 -100.409
-7.11966 0 2.80365
-9.09402 0 18.1022
25.7978 0 14.4755
-6.0881 0 10.3575
10.3999 0 15.6007
-0.78566 0 10.7106
32.0957 0 -7.34678
-44.8217 0 -144.926
-1.31996 0 -26.535
9.1077 0 -84.6893
13.5518 0 1.14957
-10.0122 0 12.84
2.76977 0 13.0449
6.96792 0 -9.29719
-0.0823115 0 31.7443
23.6688 0 45.1807
-24.7007 0 4.21264
0.804883 0 -1.00457
40.5185 0 -44.3396
-3.48934 0 10.3004
-11.3452 0 -35.7732
2.69832 0 -9.06171
7.52507 0 -20.4957
8.27019 0 -12.0169
6.38274 0 -0.105703
-11.056 0 -6.29185
-18.6817 0 10.1533
43.8211 0 18.0043
0 0 0
41.1288 0 15.4284
55.0521 0 56.4469
7.47928 0 -98.734
-13.5135 0 57.312
-17.4456 0 23.6872
-17.7917 0 -18.9385
18.8167 0 -24.1039
-20.9731 0 7.75086
15.0864 0 -19.4258
-23.0084 0 -0.207253
0.212153 0 8.69368
-15.7619 0 -4.68663
-14.9737 0 0.247419
10.7201 0 5.7108
7.28503 0 24.4198
-24.8707 0 5.03906
-17.2782 0 -42.4113
41.2537 0 14.5
-12.8477 0 2.09804
-22.4469 0 -20.54
-30.827 0 -16.6489
36.8106 0 6.25524
-21.9483 0 0.393127
-2.68262 0 -4.57681
19.9 0 -19.5756
-4.49932 0 7.85263
-26.2213 0 -27.9034
16.5271 0 27.9146
4.68737 0 -4.61205
29.4461 0 21.7021
-18.4117 0 -5.13645
-14.9713 0 15.3352
11.3672 0 -18.1368
-1.70364 0 -2.80843
10.6818 0 5.8055
-16.3465 0 -7.09392
-9.99444 0 -6.03998
49.9288 0 59.1618
-27.119 0 20.0918
-31.722 0 -3.08448
10.5617 0 60.1049
26.5115 0 53.3235
3.39528 0 9.13996
-27.8734 0 14.6725
-11.717 0 -24.6183
5.84818 0 -18.4673
5.23679 0 2.55754
-29.1621 0 -14.3421
1.47422 0 -12.4713
13.3704 0 -4.79089
-70.4201 0 -72.7331
-22.0808 0 -4.29547
31.3754 0 40.8904
1.48832 0 7.05893
-8.26574 0 -10.5136
35.9585 0 51.8058
11.9431 0 10.3153
-47.7452 0 4.75345
11.6483 0 -5.88385
-10.7185 0 -27.5455
0.211823 0 61.2058
13.3278 0 7.61506
-24.7304 0 101.725
44.0065 0 -3.26546
5.19128 0 -38.5463
6.28811 0 -3.94191
-1.47378 0 -18.4582
0.373628 0 -3.32573
-22.4811 0 -19.1535
10.735 0 10.3691
-104.158 0 -86.2663
11.4549 0 6.59448
10.3816 0 9.88786
4.94411 0 -96.0191
15.8178 0 14.4144
-68.9484 0 -51.7499
-47.0763 0 70.1792
105.003 0 -57.9661
38.4965 0 12.7364
4.80731 0 2.66608
68.3962 0 3.23387
-12.2991 0 -11.1359
9.08318 0 22.1646
24.7348 0 -1.63312
-17.4501 0 -21.2407
-182.405 0 13.2478
-12.3163 0 29.5016
17.3961 0 22.3372
93.5993 0 -13.2173
3.81385 0 -5.25819
-1.52196 0 -9.08199
0.308985 0 16.9441
21.2762 0 23.6492
-3.28182 0 -11.8104
-10.6072 0 0.178101
-30.1914 0 -71.8659
-12.1986 0 26.4624
-39.876 0 1.48194
-51.0853 0 -73.455
58.4261 0 132.297
-18.1444 0 -5.77932
-11.319 0 36.4511
47.2406 0 52.2562
17.5114 0 -17.726
-12.8508 0 -30.8253
-14.3266 0 11.6486
28.9907 0 -53.6643
-22.7909 0 71.1354
21.5231 0 -20.3914
-66.7311 0 24.2818
8.1133 0 2.06852
-0.253297 0 -7.61942
-8.47523 0 -9.50492
69.2889 0 -33.3309
-5.63224 0 90.8848
19.0123 0 -13.6853
48.8835 0 -22.5894
-17.8585 0 -57.6008
1.41846 0 27.2685
23.3387 0 42.4656
-28.1574 0 24.8127
8.00871 0 -29.903
-20.4189 0 39.6275
38.9869 0 -50.5812
-17.1593 0 -21.5152
-42.7149 0 -4.96158
0.703481 0 37.363
16.5856 0 5.33846
21.3045 0 14.1979
2.17367 0 5.38325
104.276 0 78.1935
12.9313 0 -14.3357
-16.7906 0 -24.765
-46.1026 0 48.8102
-39.0181 0 -65.1419
-3.78549 0 6.43961
-14.7036 0 45.5384
-29.0274 0 27.8897
0.679785 0 -1.56443
-0.736326 0 -21.4409
-44.1602 0 34.7028
-20.2699 0 7.59311
-14.8064 0 -2.54393
-4.7746 0 -15.9035
6.07645 0 23.2422
-14.6669 0 -9.64241
-2.16682 0 14.2607
-2.97971 0 -7.76517
-5.49713 0 -0.95004
-15.127 0 24.791
8.51952 0 -2.56716
2.74304 0 -8.42215
-4.37703 0 -7.22031
-1.51664 0 5.37465
25.3073 0 -52.6535
-11.1758 0 -10.6733
17.2585 0 -6.31903
78.8555 0 95.5869
14.8808 0 3.17791
14.351 0 -5.66984
-9.51989 0 -31.864
-5.8391 0 -24.8645
6.45771 0 -1.49088
1.16177 0 11.7359
15.4728 0 58.1357
3.42374 0 0.162508
-13.3238 0 -6.95373
10.2095 0 40.2779
-31.8996 0 -3.75868
-12.3242 0 9.73085
97.8128 0 87.292
4.23289 0 -6.59703
-110.909 0 -73.5806
22.376 0 47.6492
-14.7341 0 12.9037
-39.2944 0 -3.65082
2.37894 0 2.74144
5.09309 0 10.5033
15.7025 0 -50.4063
-4.35256 0 12.5138
-5.79214 0 2.40852
-72.5783 0 -20.8485
11.6772 0 2.62757
-1.03677 0 33.8559
-28.4197 0 2.31793
7.43943 0 -1.76
-14.2891 0 24.1158
26.1324 0 -23.515
20.0857 0 -32.628
-22.4016 0 -37.0218
-76.0293 0 -24.3146
23.2262 0 11.8466
-13.4421 0 -15.4837
-19.2398 0 2.58137
37.8835 0 37.3763
109.614 0 41.6626
-1.63095 0 11.6177
-0.835749 0 -12.2281
29.5242 0 -61.3381
-14.5402 0 28.7477
14.7583 0 11.6306
-20.9256 0 -24.4783
13.9387 0 34.0946
-5.17073 0 -10.4977
-30.1392 0 -36.4648
-3.55723 0 9.56516
-7.95529 0 -8.38042
3.54557 0 4.51022
25.0568 0 32.5492
-20.4971 0 -18.3502
25.4851 0 34.5062
-15.4718 0 -8.26739
-21.9269 0 8.25975
82.1055 0 100.797
-15.1212 0 9.68184
-4.1771 0 -2.53626
6.42886 0 -13.4333
-4.3788 0 -16.0146
-101.915 0 -53.6232
-1.0925 0 -3.69759
-5.71297 0 69.921
31.072 0 42.9296
-7.0207 0 18.1092
2.28418 0 -17.2908
2.61863 0 -15.8044
0.0216888 0 24.8381
-6.86155 0 5.67601
43.91 0 -2.03466
13.1779 0 -47.3174
4.66464 0 15.2836
-4.2833 0 -11.8346
-2.8216 0 -16.1772
2.42348 0 -15.8701
8.88725 0 6.20604
10.8234 0 23.6207
6.91413 0 12.4755
14.2118 0 -22.3213
-10.9361 0 3.91145
1.00269 0 2.04584
4.37618 0 -7.20176
-4.22633 0 8.08995
25.589 0 -85.5194
8.16258 0 -0.660694
-25.2287 0 -4.9007
33.1407 0 71.5454
0.140012 0 6.26315
-22.5318 0 -30.9071
9.89779 0 -54.6843
-18.0663 0 -9.30468
-13.9363 0 3.3104
44.3643 0 18.1323
-3.96948 0 -26.9569
20.8072 0 57.2818
-12.4409 0 -11.6434
0.908529 0 4.01569
6.84159 0 8.31829
-1.29627 0 8.3899
65.1793 0 -9.44895
-5.1129 0 5.16971
-2.85933 0 13.8726
4.03859 0 -57.383
4.88994 0 -3.8558
-15.2998 0 -29.3515
5.17678 0 2.13643
33.4947 0 31.2328
-47.0703 0 -19.0237
-17.2745 0 25.2673
6.54157 0 -14.2215
-14.8509 0 -18.9007
6.61761 0 -5.26944
8.9112 0 15.4524
-6.35211 0 9.25812
23.2494 0 -12.8404
-7.84211 0 1.35909
-9.83883 0 -4.92233
36.5456 0 -19.8166
9.71493 0 -4.89723
-14.4095 0 -0.831561
-20.3625 0 -53.7068
6.80425 0 -19.6444
14.1689 0 -6.73322
25.2053 0 -15.4192
7.72937 0 -0.655785
-4.26459 0 -4.26128
8.17815 0 -4.50806
-4.32422 0 -10.1916
3.7543 0 1.80521
-31.7765 0 -19.5616
50.5595 0 17.234
19.7539 0 -28.0424
-1.17979 0 -3.20857
-7.10659 0 11.6378
-11.7152 0 -20.0717
-18.2917 0 -1.81327
9.87945 0 -1.82697
34.9625 0 90.1101
-6.31954 0 -18.8511
-7.63496 0 36.3303
66.1945 0 9.9072
3.44735 0 12.2134
-17.5479 0 -1.446
59.6992 0 45.1305
-28.3293 0 2.28959
20.5762 0 -122.354
-3.5831 0 -9.57169
-22.9491 0 37.8391
-2.57972 0 28.0785
34.3127 0 -23.0638
-27.7626 0 -71.704
-1.55003 0 2.33423
2.49968 0 5.40409
-3.75696 0 -3.9166
-29.1172 0 -77.6242
3.12095 0 5.54134
-10.12 0 21.0656
-0.968598 0 15.9442
-49.9561 0 -8.48778
1.53359 0 -8.31444
6.88611 0 11.6444
-7.42923 0 1.04338
11.8884 0 -8.33075
9.90499 0 5.51602
33.4538 0 24.3359
26.7922 0 -51.6678
3.52266 0 8.82464
-3.40894 0 -15.221
-11.3504 0 32.1261
21.3973 0 -30.1307
38.0667 0 32.5776
-15.7519 0 -35.2543
7.04793 0 -7.99866
14.4618 0 9.46313
-85.3648 0 -74.1263
-13.8631 0 -1.69374
8.51409 0 7.50783
-18.0222 0 -27.8182
-13.8215 0 11.4767
-18.6943 0 2.91354
-7.07754 0 5.34966
48.3277 0 22.6387
-11.5157 0 -6.5242
-44.1885 0 20.0993
-12.6694 0 -28.8133
-2.20423 0 15.6179
11.4387 0 14.6379
-152.967 0 -79.6378
1.05416 0 -32.8648
16.729 0 34.1405
67.232 0 61.9483
10.7549 0 16.3968
18.7154 0 -44.5021
-11.4525 0 32.1033
-10.2944 0 -15.5334
-14.94 0 -6.55556
-13.2386 0 6.2226
134.069 0 87.7543
27.2183 0 -25.9521
-52.4457 0 -7.41164
-6.08197 0 -15.4133
23.191 0 6.09834
5.40414 0 -39.833
19.7039 0 12.019
-24.8874 0 97.3536
8.82557 0 -1.17937
-53.9121 0 -70.0361
127.435 0 -38.0592
15.4759 0 -3.78024
1.8624 0 11.5093
12.3457 0 35.3734
13.3595 0 61.8733
-0.141449 0 4.57356
4.81073 0 -1.81663
-4.17183 0 3.81079
11.961 0 3.41995
25.6245 0 -2.82657
-31.4213 0 -43.3284
0.981943 0 -15.8514
1.82095 0 1.81499
38.5711 0 -42.3504
-5.76741 0 2.97736
-10.4425 0 -3.90294
-49.6921 0 -24.6051
-14.0552 0 -5.59335
-48.8973 0 -11.6031
-2.30549 0 -9.73713
77.346 0 -68.2859
1.16272 0 -3.70759
1.69837 0 22.4153
-17.5431 0 -28.8684
-4.84074 0 6.55521
15.971 0 -6.04271
17.9925 0 20.3777
-7.00972 0 -4.44281
23.605 0 -18.4272
110.79 0 62.2945
-46.1124 0 5.26466
7.40407 0 -22.793
18.0794 0 40.5439
29.2927 0 -17.562
20.8757 0 -28.3075
-3.08132 0 14.5891
-10.7863 0 -12.5338
10.1639 0 -13.2185
11.6986 0 5.90351
11.5293 0 10.5628
8.84384 0 -7.43513
-4.00807 0 -8.52202
-16.2533 0 21.3344
11.4063 0 -3.54749
4.08639 0 11.0554
-7.38284 0 42.1112
15.1909 0 17.9922
-15.0975 0 -3.55932
5.98553 0 -4.8874
81.8675 0 -79.4172
-10.4324 0 -7.74072
5.66232 0 15.7369
-2.5441 0 -12.0846
-9.91893 0 1.35827
7.61794 0 7.21058
-2.94586 0 -5.81732
-70.1674 0 36.5131
80.3769 0 57.2529
-1.42419 0 -17.7933
66.6795 0 -8.67844
-51.6202 0 11.3682
37.6484 0 44.5165
-6.30016 0 10.1744
8.29177 0 -10.4273
-24.3039 0 -14.5617
29.7141 0 18.8824
-19.6683 0 14.9022
-18.7056 0 8.6528
-14.1696 0 38.2824
7.50184 0 6.06731
-81.4255 0 96.0647
52.8847 0 -22.4601
3.4978 0 -2.1148
17.5519 0 5.47975
21.8696 0 -47.6937
0.38811 0 2.37777
2.32046 0 1.1179
17.9533 0 56.4141
44.3146 0 111.917
-7.80601 0 -8.34416
6.31742 0 -1.30689
-4.6746 0 -4.52808
-40.1118 0 -2.66576
1.20618 0 16.4145
-4.8674 0 15.0949
-103.794 0 22.0369
-17.6408 0 6.18182
-21.864 0 5.23123
-40.1213 0 40.3644
34.6031 0 -19.1299
21.1802 0 -2.44367
22.9491 0 25.0233
-32.6402 0 5.72115
123.569 0 149.622
-126.487 0 -119.822
-18.3407 0 -5.82414
-1.95656 0 -8.47581
6.75973 0 9.40578
-31.9293 0 -41.5876
-44.5881 0 -27.1186
-2.04459 0 -42.7038
4.32604 0 4.41595
-3.25944 0 -63.1099
22.9804 0 63.8135
-4.70022 0 11.3741
19.1116 0 -12.8055
28.4244 0 1.55727
-22.3521 0 -115.878
7.11917 0 7.69553
-22.4522 0 4.35997
104.063 0 -96.206
-7.59316 0 16.5779
-9.29218 0 -1.34304
1.34482 0 -18.0487
-46.8209 0 -129.344
-20.9906 0 -25.7567
-2.44896 0 -6.97739
-113.984 0 42.3412
49.8926 0 114.273
83.2169 0 -31.852
31.4151 0 -59.3588
-51.907 0 -67.3928
20.7288 0 -38.8762
-5.78121 0 33.0913
35.0701 0 11.0797
64.6062 0 55.0532
-15.4658 0 9.59399
-0.54811 0 -51.3198
-26.5459 0 -18.8857
-35.805 0 -1.2664
4.23199 0 -39.4141
19.6004 0 -59.5798
92.9093 0 -24.0079
2.72334 0 8.00715
-120.444 0 -71.1688
-8.53044 0 -14.9247
137.539 0 74.6117
7.23722 0 -20.2802
-14.8394 0 -32.7654
15.3731 0 6.46998
18.9502 0 -22.6087
-5.73268 0 19.5651
11.3337 0 -17.1028
16.7829 0 0.648943
28.0837 0 -46.7782
-7.41294 0 2.09197
5.53973 0 -6.13235
4.54961 0 -3.69133
-11.7406 0 0.14984
-13.0186 0 -1.37297
19.4261 0 -35.6801
-44.4529 0 24.7523
14.0237 0 1.84938
7.01908 0 -7.28411
-4.561 0 5.64332
0 0 0
-4.80317 0 -0.929969
-18.0794 0 -40.5439
35.556 0 38.4165
-3.45898 0 3.3084
12.3326 0 -16.7865
38.159 0 6.08192
-10.0978 0 9.36524
33.3644 0 29.0814
-18.348 0 -31.6844
0.082188 0 0.262603
49.0358 0 -37.9881
-28.0673 0 13.1091
-18.8213 0 6.90003
3.59481 0 -0.396865
-61.2646 0 98.9463
3.21917 0 -7.90671
13.0083 0 11.1546
21.6223 0 9.30858
15.5349 0 -36.4334
-62.0861 0 -104.624
2.9165 0 27.6791
9.34824 0 -48.2822
13.0542 0 66.3034
9.6172 0 -2.69856
87.0244 0 -35.1437
-24.3742 0 31.8131
-28.0231 0 30.664