# vtk DataFile Version 3.0
SiWiRVisFile
ASCII
DATASET UNSTRUCTURED_GRID
POINTS 1600 DOUBLE
77.401 100 72.6396
75.3795 100 72.9402
76.5341 100 73.3906
78.3761 100 73.1844
79.4632 100 73.6815
80.4555 100 74.1437
81.7256 100 73.8427
82.8066 100 74.1818
83.9978 100 74.3387
83.6616 100 73.2128
92.6244 100 67.8586
91.3104 100 67.695
91.9435 100 68.8108
89.9201 100 67.7685
84.7828 100 67.2854
90.1813 100 58.8352
91.4613 100 58.6114
91.4585 100 56.9943
87.7296 100 50.9942
93.4649 100 55.8949
106.539 100 34.7932
107.209 100 33.5148
106.191 100 32.7103
107.289 100 32.3234
105.003 100 32.8526
112.194 100 34.3638
111.081 100 26.1795
112.117 100 24.9687
110.669 100 27.9799
111.682 100 27.4834
112.85 100 27.4733
113.738 100 28.0559
112.362 100 26.397
113.716 100 26.6281
114.409 100 32.4362
118.873 100 32.9885
117.013 100 31.9391
117.791 100 32.7619
116.932 100 33.6245
117.497 100 34.8206
130.884 100 55.9905
136.763 100 50.9942
131.604 100 57.2192
133.278 100 58.7063
135.1 100 58.1507
135.427 100 69.1421
134.537 100 67.0616
134.366 100 69.5556
133.519 100 67.3305
133.477 100 68.477
140.8 100 73.1813
140.284 100 74.3738
141.458 100 73.9968
142.482 100 73.6064
144.352 100 74.0354
145.484 100 73.5259
146.787 100 72.9418
148.318 100 73.635
148.933 100 72.7562
147.762 100 72.8018
74.3996 100 73.5573
75.4613 100 73.9506
77.469 100 73.9801
78.4332 100 74.4248
79.5056 100 74.8202
81.2995 100 74.8129
82.2652 100 75.2633
83.3665 100 75.2419
84.566 100 75.236
85.8605 100 75.4073
87.0537 100 75.4177
92.0521 100 66.8661
90.5766 100 68.6588
91.2536 100 64.7679
90.987 100 59.7772
90.9202 100 66.5822
92.2589 100 57.7613
92.5636 100 56.6951
93.7965 100 56.9359
96.8217 100 54.5487
105.949 100 33.7767
96.6113 100 40.8866
106.659 100 44.0824
109.672 100 31.0706
108.26 100 31.761
111.693 100 33.2757
110.66 100 32.6412
109.423 100 32.119
106.913 100 23.5622
111.429 100 28.6987
112.652 100 28.5057
117.886 100 23.6234
113.415 100 30.4522
115.709 100 31.9102
114.82 100 33.3615
116.106 100 32.887
114.553 100 30.5064
118.531 100 43.8381
127.881 100 40.8866
118.16 100 33.7928
127.153 100 55.7603
129.007 100 56.4422
131.814 100 55.3331
133.996 100 57.8264
133.298 100 66.2924
133.093 100 60.0101
131.755 100 63.3322
134.663 100 68.4117
132.085 100 66.3688
138.12 100 75.7363
139.202 100 75.1858
140.229 100 75.4479
141.238 100 75.0687
142.313 100 74.8171
143.359 100 74.5183
145.142 100 74.7906
146.161 100 74.285
147.194 100 73.9328
149.144 100 74.317
149.775 100 73.5087
74.4446 100 74.6172
75.4561 100 75.0341
76.4583 100 74.5288
77.4358 100 75.1108
78.4959 100 75.4926
80.3374 100 75.5121
81.5252 100 75.9939
82.6801 100 76.2906
83.9021 100 76.4272
85.0444 100 76.1878
86.5373 100 76.4424
86.5699 100 77.644
88.737 100 77.2273
91.7287 100 65.7045
90.2776 100 62.931
93.1693 100 61.8264
92.5774 100 58.9308
93.3257 100 58.0335
94.4569 100 57.904
95.7739 100 55.0145
97.906 100 54.3607
104.569 100 45.4055
105.494 100 44.7262
106.494 100 45.0708
99.1891 100 42.0947
107.554 100 44.5995
107.497 100 43.3387
105.557 100 43.6552
111.204 100 29.9886
112.135 100 30.7505
112.374 100 29.626
113.649 100 29.1475
121.715 100 43.6818
118.201 100 42.7458
117.831 100 44.7149
120.799 100 44.4191
118.384 100 45.7392
119.154 100 44.8372
120.761 100 45.5283
126.18 100 54.6115
129.761 100 55.6203
130.07 100 57.3259
132.851 100 57.5529
131.937 100 58.2382
132.807 100 61.156
132.307 100 62.387
132.585 100 65.1832
136.432 100 76.3747
137.497 100 76.7547
138.739 100 76.713
140.002 100 76.4817
141.005 100 76.2647
142.077 100 75.8612
143.126 100 75.6178
144.145 100 75.2482
145.942 100 75.4664
147.033 100 75.0693
148.032 100 74.6857
149.055 100 75.3864
150.1 100 74.7871
74.5213 100 75.8022
75.5782 100 76.3262
76.4827 100 75.6652
77.4325 100 76.2281
79.4921 100 76.0917
80.4413 100 76.5886
81.6489 100 77.0671
82.6691 100 77.3725
84.5944 100 77.438
85.5929 100 77.1749
85.7603 100 79.1298
87.7584 100 77.7274
87.6529 100 76.5346
92.2788 100 64.5656
91.3752 100 63.7128
91.6546 100 62.6341
93.1879 100 59.8559
92.0584 100 60.5769
93.9224 100 59.0228
95.2066 100 59.0667
95.3831 100 56.8507
98.1753 100 55.3582
104.489 100 44.1612
105.433 100 49.4441
105.673 100 45.919
105.972 100 46.9942
108.073 100 46.8979
110.746 100 47.0764
108.575 100 43.3539
111.731 100 32.1372
113.461 100 31.5998
115.653 100 42.8063
115.329 100 45.0181
116.035 100 46.0633
117.597 100 46.7557
119.574 100 45.9182
118.866 100 46.6989
120.221 100 43.6206
126.058 100 55.7812
128.524 100 57.4618
129.747 100 58.3617
131.267 100 59.2272
131.977 100 60.2641
131.458 100 61.2794
130.938 100 62.332
131.715 100 64.4647
131.426 100 65.5046
137.123 100 75.2935
137.193 100 78.3539
138.335 100 78.1697
139.539 100 77.5453
140.751 100 77.4132
141.783 100 77.0518
142.803 100 76.6132
143.938 100 76.3362
144.961 100 76.0489
146.884 100 76.2363
147.912 100 75.6982
148.856 100 76.5186
150.014 100 76.0759
74.4809 100 76.8971
75.6287 100 77.6016
76.5326 100 76.7835
78.3952 100 76.823
79.5045 100 77.2229
80.5286 100 77.6296
81.5518 100 78.1091
82.636 100 78.4759
83.6272 100 77.8052
84.8747 100 78.4836
85.6483 100 80.3316
89.2136 100 78.2683
89.4082 100 76.4177
95.2189 100 62.804
92.4978 100 63.4687
94.0142 100 61.1594
96.3463 100 61.0795
95.9402 100 59.9389
95.7151 100 57.9316
96.7162 100 56.8646
96.7725 100 55.7184
102.748 100 53.5359
104.991 100 48.4362
106.903 100 47.4029
106.805 100 46.3085
108.148 100 48.2313
109.06 100 47.6895
110.299 100 48.1382
107.773 100 45.8773
110.834 100 34.3364
110.99 100 35.572
116.444 100 44.8223
113.481 100 47.7921
114.623 100 47.2995
115.99 100 47.2402
117.244 100 45.6632
117.491 100 47.8458
117.925 100 48.8786
122.055 100 52.8468
128.285 100 55.4996
127.709 100 56.6646
128.488 100 58.6556
130.085 100 59.5026
130.918 100 60.2588
129.589 100 60.472
130.482 100 64.5298
130.667 100 63.4502
136.499 100 77.5274
136.008 100 78.504
139.039 100 80.1171
139.098 100 79.091
140.33 100 78.4506
141.549 100 78.2259
142.601 100 78.0367
143.701 100 77.4472
144.828 100 77.092
145.884 100 76.6489
147.827 100 76.9735
148.639 100 77.6069
149.804 100 77.0857
74.6796 100 77.9784
75.7495 100 78.7152
76.6225 100 78.1003
77.4807 100 77.4653
78.5632 100 77.8998
79.5832 100 78.2235
80.5744 100 78.7483
81.6769 100 79.1696
82.7399 100 79.4877
83.7869 100 78.854
84.6826 100 79.567
86.8493 100 78.7052
89.5662 100 79.7372
88.1428 100 75.6141
90.5894 100 76.4876
94.3337 100 62.1536
96.4353 100 62.3798
97.6967 100 61.1255
97.0012 100 60.2766
96.8624 100 58.0443
98.0436 100 56.8277
100.041 100 56.0993
104.53 100 52.2433
104.563 100 51.0655
106.031 100 48.5714
107.042 100 48.6148
108.686 100 50.7815
108.985 100 49.0142
112.035 100 47.001
111.066 100 45.9161
114.482 100 45.8284
113.832 100 48.9758
115.27 100 48.4506
115.77 100 49.3539
116.725 100 48.6554
118.636 100 47.8391
118.915 100 49.3477
121.682 100 51.726
124.45 100 56.8554
126.601 100 56.9459
127.388 100 57.7541
128.831 100 59.7711
128.062 100 60.9766
129.011 100 61.7393
130.172 100 61.5393
135.317 100 75.9288
137.045 100 73.0604
135.554 100 79.5255
137.941 100 79.2481
140.087 100 79.4814
141.271 100 79.5426
142.151 100 80.506
142.383 100 79.3943
143.5 100 78.5451
144.599 100 78.2544
145.617 100 77.9831
146.709 100 77.3217
147.525 100 78.0297
148.521 100 78.6373
149.513 100 78.1771
73.7718 100 78.4445
74.7846 100 79.2308
76.8012 100 79.1962
77.6632 100 78.6225
78.9351 100 79.0449
78.8859 100 81.5413
80.6838 100 79.9626
81.7521 100 80.2322
82.8595 100 80.5967
83.8251 100 80.244
85.5446 100 81.4509
87.9331 100 78.8436
90.0593 100 80.8279
89.2141 100 75.1884
95.097 100 63.8798
95.2347 100 61.4597
96.3198 100 63.5417
98.3091 100 62.1053
97.2615 100 59.2314
97.9528 100 57.9823
98.9968 100 56.4443
101.096 100 55.7628
103.869 100 53.2449
106.532 100 49.6848
109.244 100 51.7415
109.543 100 49.9623
107.114 100 52.9627
110.473 100 49.3071
106.225 100 53.6372
108.247 100 53.6778
117.727 100 54.4429
116.944 100 53.6494
115.146 100 50.2189
115.403 100 54.172
115.106 100 51.2945
116.141 100 50.3952
116.997 100 49.659
120.852 100 52.6466
122.213 100 54.8609
125.497 100 57.1642
126.286 100 57.9586
127.706 100 59.55
126.83 100 60.3686
127.779 100 62.2876
129.764 100 62.756
129.364 100 63.9126
136.006 100 75.1606
130.333 100 80.5403
136.64 100 79.3132
139.944 100 80.7013
141.071 100 80.6731
141.97 100 81.5545
143.236 100 80.2526
144.143 100 79.4944
145.467 100 80.348
145.544 100 79.2102
146.499 100 78.6475
147.387 100 79.26
149.755 100 79.1655
150.665 100 78.3989
73.83 100 79.6396
74.7377 100 80.307
75.8792 100 79.7955
77.0269 100 80.3178
77.9743 100 79.7603
77.9863 100 80.9629
79.0301 100 80.1757
81.0369 100 81.1087
82.0924 100 81.3629
83.2642 100 81.6547
84.5623 100 82.1768
85.6036 100 82.5027
86.7369 100 79.7298
86.5887 100 81.9594
86.6442 100 83.1555
90.6374 100 79.7594
96.0919 100 64.664
97.4276 100 62.7499
99.4611 100 59.5721
98.1568 100 60.1246
98.4318 100 58.9271
99.1343 100 57.4997
104.621 100 54.1569
105.546 100 50.5438
107.555 100 50.3531
108.429 100 52.5729
107.83 100 51.3975
105.34 100 54.9666
106.455 100 54.7058
108.643 100 56.551
116.483 100 54.6538
119.714 100 54.631
120.317 100 56.0945
117.086 100 51.8786
116.017 100 52.7322
117.244 100 50.7532
118.088 100 49.9797
121.498 100 53.9462
124.482 100 57.9035
126.845 100 58.9155
125.877 100 59.8732
125.693 100 61.0925
126.734 100 61.8301
128.626 100 63.0127
131.206 100 79.654
138.1 100 82.1523
138.725 100 81.1569
137.835 100 80.4885
139.275 100 82.2279
139.962 100 83.0758
140.381 100 81.7411
143.096 100 81.4708
144.19 100 81.8129
144.4 100 80.5713
146.593 100 81.1754
146.425 100 79.9123
147.49 100 80.3636
148.41 100 79.8231
149.549 100 80.2868
150.737 100 79.6147
73.768 100 80.8138
74.5949 100 81.4875
75.7283 100 80.9871
76.7467 100 81.4184
77.34 100 83.1314
75.6937 100 84.4604
77.731 100 82.0164
79.9591 100 81.3414
80.6203 100 82.2198
79.5322 100 82.4057
82.1143 100 82.6841
83.5044 100 83.915
84.3551 100 83.3412
85.442 100 83.519
87.8195 100 83.4034
90.3978 100 78.3822
97.2483 100 64.9577
97.3331 100 63.8218
98.8328 100 61.0824
101.49 100 60.9129
[...]
POINT_DATA 1600
SCALARS mass double
LOOKUP_TABLE default
1
1
1
1
1
1
1
1
1
1
1
1
1
1
1
1
1
1
1
1
1
1
1
1
1
1
1
1
1
1
1
1
1
1
1
1
1
1
1
1
1
1
1
1
1
1
1
1
1
1
1
1
1
1
1
1
1
1
1
1
1
1
1
1
1
1
1
1
1
1
1
1
1
1
1
1
1
1
1
1
1
1
1
1
1
1
1
1
1
1
1
1
1
1
1
1
1
1
1
1
1
1
1
1
1
1
1
1
1
1
1
1
1
1
1
1
1
1
1
1
1
1
1
1
1
1
1
1
1
1
1
1
1
1
1
1
1
1
1
1
1
1
1
1
1
1
1
1
1
1
1
1
1
1
1
1
1
1
1
1
1
1
1
1
1
1
1
1
1
1
1
1
1
1
1
1
1
1
1
1
1
1
1
1
1
1
1
1
1
1
1
1
1
1
1
1
1
1
1
1
1
1
1
1
1
1
1
1
1
1
1
1
1
1
1
1
1
1
1
1
1
1
1
1
1
1
1
1
1
1
1
1
1
1
1
1
1
1
1
1
1
1
1
1
1
1
1
1
1
1
1
1
1
1
1
1
1
1
1
1
1
1
1
1
1
1
1
1
1
1
1
1
1
1
1
1
1
1
1
1
1
1
1
1
1
1
1
1
1
1
1
1
1
1
1
1
1
1
1
1
1
1
1
1
1
1
1
1
1
1
1
1
1
1
1
1
1
1
1
1
1
1
1
1
1
1
1
1
1
1
1
1
1
1
1
1
1
1
1
1
1
1
1
1
1
1
1
1
1
1
1
1
1
1
1
1
1
1
1
1
1
1
1
1
1
1
1
1
1
1
1
1
1
1
1
1
1
1
1
1
1
1
1
1
1
1
1
1
1
1
1
1
1
1
1
1
1
1
1
1
1
1
1
1
1
1
1
1
1
1
1
1
1
1
1
1
1
1
1
1
1
1
1
1
1
1
1
1
1
1
1
1
1
1
1
1
1
1
1
1
1
1
1
1
1
1
1
1
1
1
1
1
1
1
1
1
1
1
1
1
1
1
1
1
1
1
1
1
1
1
1
1
1
1
1
1
1
1
1
1
1
1
1
1
1
1
1
1
1
1
1
1
1
1
1
1
1
1
1
1
1
1
1
1
1
1
1
1
1
1
1
1
1
1
1
1
1
1
1
1
1
1
1
1
1
1
1
1
1
1
1
1
1
1
1
1
1
1
1
1
1
1
1
1
1
1
1
1
1
1
1
1
1
1
1
1
1
1
1
1
1
1
1
1
1
1
1
1
1
1
1
1
1
1
1
1
1
1
1
1
1
1
1
1
1
1
1
1
1
1
1
1
1
1
1
1
1
1
1
1
1
1
1
1
1
1
1
1
1
1
1
1
1
1
1
1
1
1
1
1
1
1
1
1
1
1
1
1
1
1
1
1
1
1
1
1
1
1
1
1
1
1
1
1
1
1
1
1
1
1
1
1
1
1
1
1
1
1
1
1
1
1
1
1
1
1
1
1
1
1
1
1
1
1
1
1
1
1
1
1
1
1
1
1
1
1
1
1
1
1
1
1
1
1
1
1
1
1
1
1
1
1
1
1
1
1
1
1
1
1
1
1
1
1
1
1
1
1
1
1
1
1
1
1
1
1
1
1
1
1
1
1
1
1
1
1
1
1
1
1
1
1
1
1
1
1
1
1
1
1
1
1
1
1
1
1
1
1
1
1
1
1
1
1
1
1
1
1
1
1
1
1
1
1
1
1
1
1
1
1
1
1
1
1
1
1
1
1
1
1
1
1
1
1
1
1
1
1
1
1
1
1
1
1
1
1
1
1
1
1
1
1
1
1
1
1
1
1
1
1
1
1
1
1
1
1
1
1
1
1
1
1
1
1
1
1
1
1
1
1
1
1
1
1
1
1
1
1
1
1
1
1
1
1
1
1
1
1
1
1
1
1
1
1
1
1
1
1
1
1
1
1
1
1
1
1
1
1
1
1
1
1
1
1
1
1
1
1
1
1
1
1
1
1
1
1
1
1
1
1
1
1
1
1
1
1
1
1
1
1
1
1
1
1
1
1
1
1
1
1
1
1
1
1
1
1
1
1
1
1
1
1
1
1
1
1
1
1
1
1
1
1
1
1
1
1
1
1
1
1
1
1
1
1
1
1
1
1
1
1
1
1
1
1
1
1
1
1
1
1
1
1
1
1
1
1
1
1
1
1
1
1
1
1
1
1
1
1
1
1
1
1
1
1
1
1
1
1
1
1
1
1
1
1
1
1
1
1
1
1
1
1
1
1
1
1
1
1
1
1
1
1
1
1
1
1
1
1
1
1
1
1
1
1
1
1
1
1
1
1
1
1
1
1
1
1
1
1
1
1
1
1
1
1
1
1
1
1
1
1
1
1
1
1
1
1
1
1
1
1
1
1
1
1
1
1
1
1
1
1
1
1
1
1
1
1
1
1
1
1
1
1
1
1
1
1
1
1
1
1
1
1
1
1
1
1
1
1
1
1
1
1
1
1
1
1
1
1
1
1
1
1
1
1
1
1
1
1
1
1
1
1
1
1
1
1
1
1
1
1
1
1
1
1
1
1
1
1
1
1
1
1
1
1
1
1
1
1
1
1
1
1
1
1
1
1
1
1
1
1
1
1
1
1
1
1
1
1
1
1
1
1
1
1
1
1
1
1
1
1
1
1
1
1
1
1
1
1
1
1
1
1
1
1
1
1
1
1
1
1
1
1
1
1
1
1
1
1
1
1
1
1
1
1
1
1
1
1
1
1
1
1
1
1
1
1
1
1
1
1
1
1
1
1
1
1
1
1
1
1
1
1
1
1
1
1
1
1
1
1
1
1
1
1
1
1
1
1
1
1
1
1
1
1
1
1
1
1
1
1
1
1
1
1
1
1
1
1
1
1
1
1
1
1
1
1
1
1
1
1
1
1
1
1
1
1
1
1
1
1
1
1
1
1
1
1
1
1
1
1
1
1
1
1
1
1
1
1
1
1
1
1
1
1
1
1
1
1
1
1
1
1
1
1
1
1
1
1
1
1
1
1
1
1
1
1
1
1
1
1
1
1
1
1
1
1
1
1
1
1
1
1
1
1
1
1
1
1
1
1
1
1
1
1
1
1
1
1
1
1
1
1
1
1
1
1
1
1
1
1
1
1
1
1
1
1
1
1
1
1
1
1
1
1
1
1
1
1
1
1
1
1
1
1
1
1
1
1
1
1
1
1
1
1
1
1
1
1
1
1
1
1
1
1
1
1
1
1
1
1
1
1
1
1
1
1
1
1
1
1
1
1
1
1
1
1
1
1
1
1
1
1
1
1
1
1
1
1
1
1
1
1
1
1
1
1
1
1
1
1
1
1
1
1
1
1
1
1
1
1
1
1
1
1
1
1
1
1
1
1
1
1
1
1
1
1
1
1
1
1
1
1
1
1
1
1
1
1
1
1
1
1
1
1
1
1
1
1
1
1
1
1
1
1
1
1
1
1
1
1
1
1
1
1
1
1
1
1
1
1
1
1
1
1
1
1
1
1
1
1
1
1
1
1
1
1
1
1
1
1
1
1
1
1
1
1
1
1
1
1
1
1
1
1
1
1
1
1
1
1
VECTORS force double
-5.79662 0 14.7511
-1.30011 0 -80.6977
-21.1511 0 1.05847
2.1828 0 26.8681
-29.0987 0 4.23824
-3.61433 0 4.96598
7.50429 0 -20.6775
12.9585 0 14.9607
-26.8745 0 -40.3161
-5.66603 0 19.0487
-19.3713 0 0.788189
-4.51372 0 13.4177
-9.93801 0 -19.7415
9.0577 0 -8.40666
0 0 0
19.6026 0 6.69408
-0.26418 0 5.72873
2.9012 0 0.0197386
0 0 0
-11.5884 0 -1.65124
-1.58254 0 -15.1893
-22.632 0 -9.80052
8.49117 0 -4.51909
-8.88689 0 14.2337
19.1728 0 6.31752
-16.2646 0 -8.90072
16.7994 0 7.2919
-1.19988 0 10.2208
-29.8213 0 -33.1161
14.3513 0 2.11211
-23.7211 0 -71.3925
16.0762 0 3.03644
-5.17006 0 13.0237
-18.0296 0 14.4405
-37.3372 0 -97.5832
18.5115 0 -14.8496
-16.2887 0 12.9293
-22.1853 0 -3.51619
28.2762 0 2.61075
2.01773 0 -20.6996
-5.68988 0 5.47699
0 0 0
-5.22873 0 -25.7074
-11.2298 0 -5.28026
-7.4414 0 -1.45291
20.7896 0 25.1622
31.9861 0 -1.78774
0.823418 0 -18.0125
-30.4627 0 48.2657
17.8189 0 -1.61614
-29.498 0 -21.8772
18.4837 0 -21.7013
17.3989 0 41.0089
13.8667 0 18.6148
6.55312 0 -1.38243
-61.6104 0 -49.3701
-174.16 0 11.5502
31.693 0 90.2632
4.95005 0 -11.978
99.1273 0 -105.79
9.16342 0 -33.0322
12.8194 0 80.7293
-20.6066 0 -19.4603
30.14 0 -21.5515
-19.6924 0 -2.82909
-28.1826 0 48.5474
57.2143 0 -43.2465
6.50294 0 16.1995
-1.75057 0 11.1292
4.4142 0 12.6196
-13.1456 0 15.6148
-7.12458 0 -9.93377
19.9674 0 -4.84559
-67.997 0 2.10505
7.12583 0 -15.1043
16.4914 0 6.41215
-4.98517 0 22.3635
18.904 0 -2.71683
-5.29208 0 27.882
-9.36175 0 14.9811
6.60344 0 8.15762
0 0 0
-53.0737 0 -141.069
3.05816 0 -16.6842
14.4933 0 2.25145
-10.9494 0 7.18862
9.57717 0 -0.769144
-6.67014 0 19.7408
0 0 0
55.3053 0 35.6386
-10.3759 0 44.8875
0 0 0
-13.1541 0 -8.71291
-12.9547 0 -30.1401
48.4856 0 79.9101
10.6021 0 26.6916
-8.92116 0 2.72782
6.37727 0 5.43999
0 0 0
-29.8771 0 33.5361
-6.04509 0 -20.8143
-12.6213 0 3.26291
-4.06675 0 3.93217
-6.4052 0 2.44223
-19.1062 0 -35.7001
-8.02654 0 -0.855552
-4.39669 0 3.23258
-42.3202 0 -26.7242
26.4037 0 0.120239
18.9042 0 16.258
-31.8628 0 0.548368
21.9357 0 4.53238
5.22585 0 15.9358
-3.8948 0 -34.5721
-17.2512 0 -21.6971
-14.0378 0 -23.7344
49.8958 0 82.2891
32.7835 0 14.2577
-61.6464 0 38.389
38.3356 0 -47.0035
4.29052 0 31.7697
12.8084 0 42.9048
3.19948 0 -4.52587
12.4551 0 -14.7727
7.07074 0 38.3083
90.8511 0 -57.6641
-52.411 0 13.8209
1.77439 0 -16.0055
-1.66791 0 -0.920139
7.51207 0 38.134
-15.899 0 2.87508
23.6158 0 -12.1001
-17.464 0 25.7026
19.7589 0 45.3871
16.6779 0 4.73461
-8.98091 0 15.626
0.23167 0 -21.2003
10.4879 0 1.02865
6.76525 0 5.14118
15.1564 0 6.51046
-10.0115 0 -58.5297
16.7606 0 -10.9431
-32.71 0 18.46
19.3555 0 141.473
0 0 0
48.2106 0 31.9412
-20.2587 0 12.2613
4.15408 0 -11.5566
21.5076 0 -7.07016
4.89781 0 -7.20953
-0.730945 0 -2.56038
-19.563 0 20.264
-13.5195 0 6.26987
1.68372 0 5.60897
7.10193 0 7.94898
95.2254 0 117.68
-8.27877 0 -24.827
-13.4317 0 4.65634
-14.1344 0 5.62768
3.07581 0 14.1111
5.56401 0 3.85627
0.0327864 0 -24.8853
-1.44878 0 13.6419
11.7091 0 32.2479
-20.3658 0 -7.72959
-6.66833 0 -25.2813
-11.3013 0 21.0008
-8.49017 0 -11.7631
4.95967 0 -2.31531
0.639823 0 -1.42821
-84.912 0 60.91
71.543 0 -23.5226
-70.5757 0 2.5014
4.79374 0 -55.8411
29.8311 0 2.70901
47.3991 0 34.7971
-51.669 0 -1.37337
45.566 0 -74.3352
-6.29437 0 24.827
10.2282 0 19.3949
19.6023 0 -23.2021
-49.357 0 -12.447
-20.4297 0 -11.118
45.9347 0 -6.80492
-96.8198 0 23.599
37.5682 0 -18.4147
-32.5656 0 -39.7548
-14.5085 0 5.0479
-13.5522 0 -37.7321
50.2524 0 -26.9614
12.1676 0 15.7696
-22.3843 0 0.903392
-18.745 0 54.2954
31.9263 0 -5.82802
9.48142 0 -26.3076
2.49734 0 5.9619
-6.18421 0 14.4489
3.65996 0 -11.65
5.76228 0 -20.3893
-7.50531 0 -15.5064
3.36337 0 7.21245
10.9358 0 73.877
16.7083 0 11.6054
-14.4694 0 31.8106
5.96742 0 -22.2935
-91.7459 0 -15.3711
-1.39917 0 47.9457
10.0534 0 -4.53499
16.4904 0 3.47007
-6.16929 0 0.854459
7.05336 0 -3.25755
0.13103 0 0.909191
3.44149 0 16.1017
5.35687 0 -13.1732
17.1941 0 -21.5506
22.3183 0 -41.8151
-31.272 0 55.4602
-90.8022 0 -121.838
-5.71016 0 8.76596
-4.43438 0 10.4807
-16.3001 0 27.709
4.89795 0 -9.69062
36.7821 0 0.967608
-2.21779 0 5.87725
11.5995 0 15.3158
-10.3768 0 -23.4421
-8.91765 0 -3.98797
-16.5564 0 10.822
16.7275 0 13.0475
5.85879 0 3.35096
8.70424 0 2.77689
-22.4108 0 -11.2319
17.8565 0 8.43653
37.4435 0 87.2406
-21.0258 0 33.2459
29.2196 0 -68.8986
25.1054 0 -28.2324
15.9443 0 110.426
-3.22617 0 -23.7448
-7.45437 0 -75.3306
17.9075 0 3.52874
71.5132 0 -54.3804
0.961403 0 56.8455
15.4864 0 -26.5326
-28.3144 0 -116.127
24.2071 0 42.624
-3.06766 0 19.2484
-3.49478 0 -78.0945
-25.7473 0 7.93398
-10.2361 0 -3.56295
0.799459 0 -23.5841
0.334654 0 -0.527038
16.5172 0 -63.4863
29.1794 0 -19.9925
-13.4756 0 -7.68272
10.7403 0 -60.2143
-37.5884 0 48.9628
2.81372 0 5.84207
-6.41825 0 5.6681
-0.245478 0 9.97885
-0.528058 0 -9.64945
8.54921 0 -1.55658
-42.5313 0 -13.5731
92.1584 0 55.9622
-21.4457 0 -20.1179
-37.3747 0 9.92676
28.4388 0 -9.50417
-9.96748 0 2.87255
12.4235 0 -53.4973
16.776 0 1.89917
0.429011 0 -13.9938
8.37126 0 16.1958
12.9289 0 5.15847
3.53416 0 7.83591
-5.13499 0 0.816174
-10.2797 0 6.72042
3.12302 0 6.66912
-23.3517 0 -10.0159
-21.0175 0 0.846606
-1.154 0 21.914
27.7006 0 23.1757
-0.201407 0 -1.47453
2.8963 0 -21.6872
-47.5492 0 24.9881
49.0416 0 71.0587
8.38039 0 7.60698
-14.043 0 -11.2521
-4.28147 0 -37.7903
-52.9364 0 -55.5789
-22.8572 0 36.4799
-30.8094 0 -92.1526
8.66825 0 -33.9145
-35.5796 0 8.1113
-25.9215 0 -47.9437
-0.143476 0 -4.85659
-10.5929 0 52.4086
-38.4057 0 -7.04109
-64.0622 0 -63.9155
16.7345 0 -39.0906
-19.1821 0 75.6261
11.5147 0 19.097
-16.4469 0 -5.33479
8.80706 0 -8.3102
20.7875 0 -19.121
-25.5815 0 12.2065
58.7147 0 82.1352
15.2222 0 11.0107
-11.9177 0 -5.51306
21.2232 0 90.0861
-5.65165 0 40.7084
19.161 0 1.28025
-4.81988 0 -62.4556
-19.7556 0 -0.420955
38.5409 0 -38.5243
-74.7816 0 -116.809
0.989184 0 36.7241
-44.7693 0 -12.7814
-1.77542 0 22.5818
37.5336 0 -32.5113
-14.0367 0 0.506876
-67.6662 0 33.8279
-0.961168 0 -5.54942
-37.4577 0 -28.8625
9.49065 0 16.1008
-23.1712 0 -25.2188
96.591 0 -0.461425
24.5387 0 -36.6953
-0.687971 0 -20.2762
-13.677 0 -2.50222
1.49208 0 16.2269
12.2318 0 1.38002
4.35603 0 -13.1744
-29.8354 0 -65.5846
63.8825 0 23.8336
-18.8463 0 -43.4693
-14.0704 0 2.57757
48.553 0 -24.8554
-5.05203 0 18.8863
-10.3342 0 -46.1902
14.6466 0 -49.9477
9.83072 0 8.72768
-45.1857 0 -49.226
1.40326 0 2.05829
-0.140393 0 6.55085
-9.71802 0 -9.98249
-29.3156 0 59.3271
-0.120883 0 0.698298
-16.5328 0 -4.7614
-0.585801 0 4.79288
21.7575 0 64.3375
-7.58871 0 -0.600135
13.7648 0 -33.9485
12.2444 0 -6.97281
53.1583 0 41.8499
-43.2586 0 9.57458
36.6744 0 -24.9096
4.57547 0 27.2749
17.045 0 37.4762
-25.7515 0 75.259
37.96 0 -60.9898
-58.7375 0 52.9064
44.3028 0 -49.67
-37.0039 0 37.6156
56.7794 0 -36.0947
-47.1227 0 30.3131
-14.4206 0 6.08478
-0.0665442 0 -6.77205
28.1024 0 35.3978
-61.7867 0 12.4576
46.1233 0 -26.4413
-5.17762 0 -28.7446
14.0834 0 -2.71423
1.07954 0 -19.9691
-4.3774 0 16.6945
19.4909 0 18.7368
-0.0408082 0 7.07825
-49.669 0 -20.8385
9.32668 0 -59.2064
18.1042 0 -28.0395
3.69871 0 -37.6637
54.855 0 -53.0877
3.45606 0 0.457045
9.23849 0 -0.898604
1.40451 0 2.81537
-11.0172 0 5.95285
-1.77689 0 12.3695
16.344 0 0.286426
-10.4016 0 -9.3275
-13.1701 0 -12.179
-14.566 0 8.96211
-4.49852 0 -0.649884
-9.50743 0 -15.1223
-111.224 0 -19.4385
14.4981 0 -1.19879
9.011 0 16.0501
103.49 0 29.6467
14.0656 0 42.4618
16.4912 0 10.7917
-16.2794 0 -6.27101
5.11904 0 9.22733
-21.4151 0 33.5765
25.0989 0 20.1103
26.3458 0 11.4825
-0.558046 0 -10.3723
-0.912573 0 -8.44535
9.90549 0 -14.9899
47.0602 0 -34.9157
-34.9625 0 -143.679
58.3233 0 57.2581
9.40154 0 4.54267
-11.1982 0 11.1545
-4.4886 0 18.8589
11.0222 0 -0.471395
0.584323 0 -12.7412
-17.7827 0 9.15419
-16.4372 0 -8.65947
3.81994 0 -13.237
26.201 0 -2.68348
-4.24739 0 71.8861
-20.0811 0 13.4035
-48.021 0 20.3499
28.1871 0 25.158
-16.283 0 33.0719
-18.4133 0 3.80684
5.53933 0 -12.9861
-24.207 0 -46.0945
-6.82716 0 14.5157
-12.125 0 -7.24068
8.96063 0 17.6867
-5.84736 0 -3.47804
-8.93544 0 -0.943573
30.3758 0 -13.6236
-18.7042 0 63.4836
-8.32875 0 8.53907
-11.1311 0 0.697973
16.4011 0 1.65274
9.6983 0 -10.9936
14.8588 0 -0.3674
-15.1024 0 -10.468
0.323362 0 -20.6202
13.618 0 45.4175
-83.0468 0 59.5971
-13.0984 0 -21.7322
20.2429 0 -25.7196
14.1901 0 -37.5053
-8.25175 0 -15.4073
-23.0435 0 50.4258
22.3303 0 11.8785
4.47551 0 10.2397
15.0409 0 -42.1726
1.51344 0 -0.982197
21.7814 0 82.0204
32.6292 0 9.51901
1.8981 0 -3.48732
12.5652 0 4.44451
-3.42828 0 -4.32648
-48.8551 0 45.412
-10.1677 0 -6.02052
-9.77689 0 12.6892
-19.5007 0 -10.1325
-25.7346 0 -7.96543
72.3265 0 41.8507
0.851347 0 -40.7849
14.1518 0 0.304969
28.3147 0 26.6128
18.8902 0 -0.945
10.9713 0 29.6679
10.0605 0 -17.6627
-12.1553 0 -21.3428
1.91544 0 -0.513472
3.68614 0 6.44882
-1.48646 0 -4.56492
7.79379 0 -14.8228
-18.213 0 25.2172
12.618 0 -54.0572
49.8379 0 -17.8052
-33.4886 0 36.2782
32.0946 0 -29.5525
-6.36719 0 1.94688
7.46221 0 -10.5634
-27.5238 0 -21.663
-10.1613 0 -23.2683
-19.7339 0 -7.72843
14.326 0 7.62599
17.0056 0 7.68322
7.65091 0 3.29163
-18.4306 0 7.35041
-4.10762 0 -10.0523
19.1279 0 3.85783
5.09448 0 28.0122
-0.554914 0 -2.18495
-30.3485 0 59.4482
62.5004 0 -41.2417
21.3788 0 38.4941
-29.9518 0 -11.1876
-5.40789 0 -2.88956
-3.51144 0 -56.4635
51.011 0 37.1062
-9.37062 0 0.54583
-38.9153 0 108.412
65.1768 0 -14.6024
6.27503 0 2.27127
47.966 0 25.5075
-7.28716 0 30.9724
15.7028 0 -0.0692557
-33.282 0 9.6817
-43.9272 0 -4.4346
20.1434 0 -7.91215
-48.31 0 26.779
-1.13774 0 -5.98599
-23.9748 0 -35.4625
15.6403 0 15.0962
-57.3927 0 -48.9873
11.6253 0 12.0967
-3.02488 0 -13.2273
-9.39693 0 -0.0103459
-13.8481 0 -0.603746
28.7679 0 -26.233
-7.84251 0 -8.49809
-57.5324 0 -38.545
42.0295 0 60.5146
38.6221 0 -15.0002
38.5296 0 -12.283
-16.4233 0 -2.67516
23.8282 0 -12.4914
36.2476 0 5.80104
-28.3987 0 -1.04841
46.1019 0 -0.68114
-27.8911 0 17.5505
26.5376 0 -7.23902
5.73289 0 -6.3631
-63.0448 0 -59.7904
5.30156 0 6.85435
-79.82 0 53.6815
-25.4629 0 -14.9593
21.0996 0 -2.61111
4.56591 0 -53.5023
41.3665 0 -6.97905
6.86437 0 -14.8975
-19.2408 0 15.4117
11.7891 0 -7.14148
10.5811 0 -4.57752
18.965 0 17.2019
15.8744 0 -30.1751
24.5454 0 5.14786
18.7345 0 1.65252
-52.3203 0 57.6101
-33.598 0 -77.0008
-16.6899 0 -2.0534
-4.51011 0 -4.81743
-10.069 0 -3.09344
-35.2998 0 -24.5979
17.7938 0 9.90317
-39.4805 0 18.5632
31.6525 0 5.94692
13.6499 0 2.83875
-12.8491 0 -3.5874
7.93735 0 24.5832
-9.87095 0 13.2407
-58.3242 0 -38.1435
20.0013 0 61.0309
4.84931 0 -16.3196
-14.9703 0 -6.10523
-10.2262 0 -21.5993
-5.68045 0 -8.70688
23.0315 0 -44.2722
-9.85198 0 -47.5822
2.19262 0 10.4809
-13.8015 0 -12.0977
-13.7428 0 21.7988
6.37368 0 0.746902
-36.4542 0 36.0606
44.383 0 19.8967
1.57568 0 12.3959
2.07181 0 5.25425
5.80054 0 0.358093
-43.3718 0 -49.9669
40.9265 0 21.7047
-1.49263 0 -6.22204
13.2372 0 -7.58803
-49.2746 0 56.832
-18.5975 0 -98.0281
15.2952 0 4.38263
-39.0517 0 -1.3999
30.8448 0 21.7429
-9.96732 0 -21.6447
-9.91492 0 -3.42381
3.41494 0 7.69018
-11.6302 0 -0.257464
48.8634 0 76.4078
-11.1465 0 15.5322
-77.0386 0 -199.301
18.6798 0 -25.2868
8.91715 0 -29.3064
-17.7129 0 33.4562
28.3572 0 37.3165
3.07775 0 0.871314
-13.1115 0 -2.75945
4.40298 0 -0.583482
-18.7645 0 -3.66221
-17.2092 0 -10.5132
-7.31066 0 6.66439
3.56964 0 3.75238
10.5463 0 -11.387
9.69741 0 45.0146
-8.13015 0 1.85193
-0.877421 0 -0.868971
97.5463 0 17.0058
-17.3303 0 -45.7398
0.436789 0 13.6779
-7.80656 0 9.66582
-11.0483 0 18.6677
37.3466 0 1.08059
-11.2 0 -54.0343
67.6877 0 -121.16
-15.1235 0 22.5752
2.92999 0 -16.6146
-8.47284 0 3.76389
44.9983 0 126.698
5.02468 0 45.4788
-30.7787 0 5.95452
48.6895 0 30.0973
-10.5152 0 -8.13295
55.0709 0 -32.8182
-24.1781 0 5.8689
-38.2646 0 12.0461
8.42887 0 9.47051
-20.7858 0 13.3011
1.34396 0 5.22636
-11.1212 0 3.75887
-9.89557 0 10.0418
17.2094 0 12.6784
-53.8559 0 -15.3849
-5.65911 0 8.67631
-82.0532 0 -43.2455
5.81143 0 62.6319
-6.47686 0 -7.11417
4.52935 0 2.88368
20.2779 0 -15.6941
13.4527 0 4.22439
-24.3651 0 96.3835
1.0635 0 11.2536
29.9058 0 16.3824
3.60241 0 -1.50212
36.4047 0 -50.2379
-0.857678 0 23.581
21.1683 0 28.3106
49.1466 0 -19.8176
11.7801 0 -4.25107
-3.71151 0 -50.6027
16.9883 0 -5.48268
4.71241 0 29.2848
37.5739 0 229.706
-16.7294 0 32.7137
5.51174 0 -15.8828
7.11564 0 6.18725
2.1469 0 16.252
-20.5875 0 -8.69462
-53.8248 0 15.7211
-44.7247 0 10.4262
-21.3409 0 7.04508
6.83021 0 20.8038
-1.14928 0 -1.43497
5.70332 0 -6.83921
9.97946 0 10.0893
-18.7444 0 -12.358
-7.16916 0 0.893678
8.19789 0 8.09775
15.5933 0 -0.416807
7.82406 0 14.8884
-3.98282 0 -11.8961
-5.47584 0 -32.0252
-39.1592 0 -5.53961
-5.88366 0 39.2449
-9.53834 0 -17.0058
-60.8944 0 -17.2573
29.4715 0 -20.7847
16.9387 0 15.7299
13.8506 0 -8.05159
7.54448 0 -14.1767
12.8871 0 -6.98295
-4.99225 0 -1.49095
43.3777 0 19.8951
60.5117 0 -13.4951
-16.2364 0 3.12932
-9.60914 0 -18.1092
-54.7755 0 37.6117
61.9574 0 39.1036
37.7467 0 27.8192
-7.3135 0 -10.9132
-1.93927 0 2.90902
53.7858 0 -48.7465
19.1272 0 -12.2447
-4.26104 0 12.4603
-6.02929 0 -60.7128
2.69907 0 -17.9806
-19.5359 0 42.2757
-3.0756 0 -42.3413
16.0263 0 8.85237
-13.8756 0 -56.4242
0.57888 0 -10.8968
-1.23397 0 53.7507
3.99813 0 -4.45983
-38.6761 0 23.6873
-54.9587 0 24.5931
-11.7998 0 -11.2694
-39.2144 0 19.1062
-43.4335 0 -50.6964
24.2647 0 15.5134
18.5693 0 -2.67142
-1.63069 0 -50.5903
17.755 0 -57.8017
-0.460263 0 -4.40056
-27.8009 0 -19.6212
12.9181 0 9.80249
3.07843 0 5.60972
-15.3592 0 -36.594
19.1627 0 16.4015
17.8856 0 11.2152
39.5167 0 -5.93834
-19.3893 0 -12.6242
29.5012 0 -15.5607
-7.95743 0 18.9491
37.2355 0 1.7126
-67.7848 0 -37.5736
15.9478 0 -45.5233
40.003 0 7.75359
20.7233 0 32.8956
-36.8244 0 17.5261
-16.6314 0 -44.8255
0.499331 0 1.41363
-3.88364 0 -6.21903
10.6161 0 -14.7617
-5.8041 0 -16.9052
-121.328 0 100.616
14.5213 0 24.6295
-11.6746 0 15.7197
-14.6434 0 -1.38082
20.2231 0 20.2226
-17.946 0 -28.2183
3.73109 0 6.5211
-2.74054 0 -18.5804
-1.08526 0 19.8146
4.74774 0 -1.65559
19.8639 0 -8.74834
57.3388 0 2.83513
-10.9129 0 10.9988
-23.3503 0 -18.1976
11.778 0 -22.8054
35.6217 0 -9.99809
-10.4406 0 -5.76708
10.6811 0 8.01304
-11.3859 0 -10.1747
17.4484 0 -26.9716
-5.88188 0 6.50482
87.3111 0 34.7188
-16.0808 0 16.1342
-2.76762 0 0.44566
-2.39087 0 -9.00311
20.9467 0 11.0784
-3.60201 0 -19.8394
1.49972 0 -106.931
-14.7519 0 9.96493
9.24821 0 -41.5089
-4.66342 0 -15.7758
20.4995 0 -0.617271
8.65887 0 -12.8539
4.37259 0 37.1657
-16.3554 0 65.8055
27.2609 0 -44.4974
6.86143 0 20.8563
-11.8784 0 -8.16644
47.1084 0 27.6064
-13.0109 0 -0.214099
26.3434 0 -39.5038
-70.9815 0 -61.4368
49.6732 0 37.6623
23.5833 0 -23.3435
-26.9647 0 -20.8883
29.2051 0 13.9226
-11.0425 0 -5.03232
4.97049 0 9.02298
2.3791 0 -3.13012
7.78476 0 -21.2114
-64.1815 0 -62.0641
38.7158 0 53.7752
-17.3443 0 5.41782
-77.6498 0 48.4896
37.7876 0 -50.4908
34.4119 0 15.0022
-6.82303 0 -0.773327
13.0452 0 16.9714
-1.18167 0 -38.0474
-4.31329 0 41.2587
98.5028 0 -40.9029
72.8898 0 57.2026
-47.1073 0 41.7453
14.0678 0 12.0567
-1.88728 0 17.5372
-15.8214 0 -2.28253
17.6491 0 -3.27777
3.91218 0 14.9717
13.0718 0 6.65293
-11.7568 0 16.0564
-65.2356 0 5.83228
-21.738 0 2.24512
-27.8146 0 -14.9548
28.849 0 1.11384
24.4467 0 -27.6866
0.668906 0 13.0097
16.9642 0 -55.7406
2.51142 0 16.5547
-34.123 0 4.66646
11.7608 0 39.1841
9.6354 0 7.0494
5.4906 0 0.704169
-4.13535 0 -3.00716
-8.54929 0 -7.57144
-22.9862 0 2.28235
-29.936 0 29.329
-17.4478 0 2.17432
-33.953 0 -5.08566
-22.1002 0 -0.254882
23.9801 0 31.9431
9.88191 0 6.9138
3.10273 0 -17.5435
-1.85261 0 -22.3319
4.76776 0 -2.59004
-31.3153 0 15.768
-40.4074 0 -43.5456
-3.26471 0 48.2368
7.75482 0 -3.51711
-52.0224 0 1.25057
50.1346 0 -6.36418
-5.0238 0 -8.31211
28.9601 0 2.19059
7.719 0 25.859
0.889042 0 -3.07108
-23.7361 0 -2.31485
9.51351 0 47.3886
20.2367 0 4.63045
26.1349 0 9.46929
18.5426 0 -6.59569
-15.0418 0 -5.77489
-117.572 0 35.8152
105.842 0 53.3629
-24.3313 0 3.49617
-16.6824 0 -10.7365
20.6489 0 4.43191
8.54448 0 -1.91385
-25.0207 0 40.0475
-9.68517 0 -8.19983
40.2115 0 -12.406
-49.3522 0 -39.7234
69.7932 0 35.3651
-19.2682 0 6.85764
10.0691 0 -3.12132
-9.48796 0 10.6498
-3.0927 0 -15.315
12.2181 0 -6.98695
-6.09889 0 -15.0766
-19.8707 0 -3.55173
14.2297 0 -9.18617
8.69242 0 -10.8428
-39.588 0 -20.529
22.3321 0 -7.42123
45.5739 0 -2.78946
-10.8737 0 -49.9889
-47.7829 0 18.4024
2.80339 0 5.02281
-16.9588 0 65.1403
-0.00537812 0 -9.39967
-4.85358 0 13.9291
3.48753 0 -1.31519
-1.93486 0 -1.31947
0.989417 0 -10.665
-11.1281 0 12.3282
-51.3827 0 -32.1416
-12.0528 0 -1.21051
38.271 0 1.43867
-17.9597 0 -12.0768
16.8348 0 89.9496
-85.7789 0 24.2665
-19.3842 0 0.928938
9.30083 0 -10.6084
-2.54907 0 -95.269
-57.4647 0 -108.056
3.2603 0 17.6166
16.6577 0 4.92401
44.8565 0 7.98735