# vtk DataFile Version 3.0
SiWiRVisFile
ASCII
DATASET UNSTRUCTURED_GRID
POINTS 1600 DOUBLE
79.2529 100 76.2839
80.3121 100 76.5373
81.3992 100 76.8754
82.6067 100 76.6641
83.715 100 76.757
84.8216 100 76.8137
85.9246 100 76.8282
87.019 100 76.8292
88.1241 100 76.8011
89.1985 100 76.7566
90.2484 100 76.7215
91.3382 100 76.7019
92.4605 100 76.7022
93.62 100 76.6706
94.7935 100 76.6233
95.9581 100 76.5982
97.1108 100 76.5887
98.24 100 76.5816
99.2409 100 76.5806
100.326 100 76.409
101.681 100 74.5199
102.732 100 75.5409
103.818 100 75.0432
104.978 100 75.0725
106.106 100 75.0393
107.221 100 75.0202
108.336 100 75.0037
109.451 100 74.9907
110.569 100 74.9852
111.687 100 74.9822
112.805 100 74.9822
113.924 100 74.9852
115.041 100 74.9907
116.157 100 75.0037
117.271 100 75.0202
118.387 100 75.0393
119.515 100 75.0725
120.675 100 75.0432
121.76 100 75.5409
122.811 100 74.5199
124.166 100 76.409
125.252 100 76.5806
126.252 100 76.5816
127.382 100 76.5887
128.534 100 76.5982
129.699 100 76.6233
130.872 100 76.6706
132.032 100 76.7022
133.154 100 76.7019
134.244 100 76.7215
135.294 100 76.7566
136.368 100 76.8011
137.473 100 76.8292
138.568 100 76.8282
139.671 100 76.8137
140.777 100 76.757
141.886 100 76.6641
143.093 100 76.8754
144.18 100 76.5373
145.24 100 76.2839
79.4894 100 77.3214
80.542 100 77.606
82.1644 100 77.6282
83.1954 100 77.7337
84.2448 100 77.7856
85.3161 100 77.8129
86.4135 100 77.7799
87.5287 100 77.7402
88.6571 100 77.7405
89.7936 100 77.7546
90.9061 100 77.7185
92.0143 100 77.6569
93.1064 100 77.6298
94.1735 100 77.6434
95.1993 100 77.6564
96.222 100 77.6717
97.2296 100 77.6784
98.2575 100 77.6735
99.2708 100 77.6556
100.412 100 77.5248
101.683 100 76.3015
102.586 100 77.1552
103.589 100 76.7921
104.683 100 76.7766
105.862 100 76.6006
107.037 100 76.4524
108.205 100 76.317
109.368 100 76.2207
110.524 100 76.1652
111.673 100 76.1269
112.819 100 76.1269
113.968 100 76.1652
115.125 100 76.2207
116.287 100 76.317
117.455 100 76.4524
118.63 100 76.6006
119.809 100 76.7766
120.903 100 76.7921
121.907 100 77.1552
122.81 100 76.3015
124.081 100 77.5248
125.222 100 77.6556
126.235 100 77.6735
127.263 100 77.6784
128.27 100 77.6717
129.293 100 77.6564
130.319 100 77.6434
131.386 100 77.6298
132.478 100 77.6569
133.586 100 77.7185
134.699 100 77.7546
135.835 100 77.7405
136.964 100 77.7402
138.079 100 77.7799
139.176 100 77.8129
140.248 100 77.7856
141.297 100 77.7337
142.328 100 77.6282
143.95 100 77.606
145.003 100 77.3214
79.7461 100 78.3982
80.6184 100 79.019
81.3586 100 78.2877
82.4874 100 78.6621
83.5566 100 78.787
84.6891 100 78.7788
85.7631 100 78.7379
86.888 100 78.7051
88.0608 100 78.7095
89.2323 100 78.6995
90.3997 100 78.6386
91.5839 100 78.642
92.7743 100 78.6902
93.9526 100 78.7406
95.1101 100 78.7639
96.2437 100 78.7707
97.3463 100 78.7619
98.3765 100 78.7382
99.4125 100 78.7193
100.501 100 78.6897
101.824 100 78.1946
103 100 78.2622
104.277 100 78.0482
105.373 100 78.1112
106.428 100 78.1216
107.478 100 78.124
108.587 100 78.0098
109.664 100 77.7546
110.709 100 77.6126
111.727 100 77.419
112.766 100 77.419
113.783 100 77.6126
114.828 100 77.7546
115.906 100 78.0098
117.014 100 78.124
118.065 100 78.1216
119.119 100 78.1112
120.216 100 78.0482
121.492 100 78.2622
122.669 100 78.1946
123.991 100 78.6897
125.08 100 78.7193
126.116 100 78.7382
127.146 100 78.7619
128.249 100 78.7707
129.382 100 78.7639
130.54 100 78.7406
131.718 100 78.6902
132.909 100 78.642
134.093 100 78.6386
135.26 100 78.6995
136.432 100 78.7095
137.604 100 78.7051
138.729 100 78.7379
139.803 100 78.7788
140.936 100 78.787
142.005 100 78.6621
143.134 100 78.2877
143.874 100 79.019
144.746 100 78.3982
79.6556 100 79.4947
80.7327 100 80.0646
81.6498 100 79.3905
82.8298 100 79.8114
84.0202 100 79.7312
85.1075 100 79.7412
86.1804 100 79.7518
87.2496 100 79.7719
88.3072 100 79.7607
89.3588 100 79.7187
90.4216 100 79.7266
91.4832 100 79.7714
92.5463 100 79.7965
93.6153 100 79.8062
94.688 100 79.7997
95.7959 100 79.7925
96.9047 100 79.7851
98.0318 100 79.7815
99.2119 100 79.7882
100.391 100 79.7609
101.319 100 79.2356
102.433 100 79.2697
103.496 100 79.4082
104.565 100 79.2769
105.77 100 79.2713
106.956 100 79.2637
108.026 100 78.9342
109.162 100 78.9244
110.363 100 78.94
111.594 100 78.7253
112.898 100 78.7253
114.129 100 78.94
115.33 100 78.9244
116.466 100 78.9342
117.537 100 79.2637
118.722 100 79.2713
119.928 100 79.2769
120.996 100 79.4082
122.059 100 79.2697
123.174 100 79.2356
124.102 100 79.7609
125.28 100 79.7882
126.461 100 79.7815
127.588 100 79.7851
128.696 100 79.7925
129.804 100 79.7997
130.877 100 79.8062
131.946 100 79.7965
133.009 100 79.7714
134.071 100 79.7266
135.134 100 79.7187
136.185 100 79.7607
137.243 100 79.7719
138.312 100 79.7518
139.385 100 79.7412
140.472 100 79.7312
141.663 100 79.8114
142.843 100 79.3905
143.76 100 80.0646
144.837 100 79.4947
79.7092 100 80.5895
80.7822 100 81.0996
81.8139 100 80.4508
82.768 100 80.9861
83.9239 100 80.8342
84.9941 100 80.8664
86.1016 100 80.8623
87.2585 100 80.8278
88.4082 100 80.8019
89.548 100 80.821
90.6782 100 80.8387
91.8068 100 80.8603
92.9238 100 80.8636
94.0251 100 80.8585
95.1265 100 80.849
96.2344 100 80.8468
97.3346 100 80.8499
98.4346 100 80.8508
99.4996 100 80.8464
100.537 100 80.8371
101.755 100 80.3167
103.06 100 80.3072
104.151 100 80.3034
105.207 100 80.3103
106.305 100 80.1964
107.414 100 80.2048
108.532 100 80.102
109.612 100 80.1066
110.7 100 80.024
111.731 100 79.7931
112.762 100 79.7931
113.793 100 80.024
114.881 100 80.1066
115.961 100 80.102
117.079 100 80.2048
118.187 100 80.1964
119.285 100 80.3103
120.342 100 80.3034
121.433 100 80.3072
122.738 100 80.3167
123.956 100 80.8371
124.993 100 80.8464
126.058 100 80.8508
127.158 100 80.8499
128.258 100 80.8468
129.366 100 80.849
130.467 100 80.8585
131.569 100 80.8636
132.686 100 80.8603
133.814 100 80.8387
134.944 100 80.821
136.084 100 80.8019
137.234 100 80.8278
138.391 100 80.8623
139.498 100 80.8664
140.568 100 80.8342
141.724 100 80.9861
142.679 100 80.4508
143.71 100 81.0996
144.783 100 80.5895
79.7975 100 81.6672
80.7993 100 82.156
81.7934 100 81.5389
82.7587 100 82.074
83.8466 100 81.9092
84.9181 100 81.9236
86.0407 100 81.9041
87.1605 100 81.8987
88.2668 100 81.9151
89.3648 100 81.9338
90.4527 100 81.9391
91.5394 100 81.9465
92.6316 100 81.9417
93.7207 100 81.9366
94.8182 100 81.9316
95.9337 100 81.9338
97.0433 100 81.9375
98.17 100 81.9384
99.3583 100 81.9332
100.502 100 81.9217
101.417 100 81.3639
102.495 100 81.1353
103.548 100 81.1929
104.73 100 81.2164
105.91 100 81.2169
107.092 100 81.2652
108.234 100 81.2242
109.386 100 81.1995
110.515 100 81.0086
111.651 100 80.891
112.841 100 80.891
113.977 100 81.0086
115.107 100 81.1995
116.258 100 81.2242
117.4 100 81.2652
118.582 100 81.2169
119.763 100 81.2164
120.944 100 81.1929
121.997 100 81.1353
123.076 100 81.3639
123.99 100 81.9217
125.134 100 81.9332
126.322 100 81.9384
127.449 100 81.9375
128.559 100 81.9338
129.674 100 81.9316
130.772 100 81.9366
131.861 100 81.9417
132.953 100 81.9465
134.04 100 81.9391
135.128 100 81.9338
136.226 100 81.9151
137.332 100 81.8987
138.452 100 81.9041
139.574 100 81.9236
140.646 100 81.9092
141.734 100 82.074
142.699 100 81.5389
143.693 100 82.156
144.695 100 81.6672
79.7633 100 82.7458
80.7661 100 83.2108
81.7749 100 82.6051
82.7387 100 83.1391
83.8132 100 82.961
84.9589 100 82.9845
86.1004 100 82.9946
87.2264 100 83.004
88.3438 100 83.0183
89.4567 100 83.0304
90.5608 100 83.0312
91.6673 100 83.0339
92.7741 100 83.0289
93.8731 100 83.0255
94.9816 100 83.0217
96.1013 100 83.0232
97.213 100 83.0245
98.3392 100 83.0231
99.4675 100 83.0188
100.559 100 82.961
101.601 100 82.4431
102.828 100 82.3941
103.939 100 82.2371
105.024 100 82.3212
106.14 100 82.2997
107.25 100 82.2646
108.348 100 82.3115
109.476 100 82.2063
110.599 100 82.0927
111.692 100 81.8467
112.8 100 81.8467
113.894 100 82.0927
115.016 100 82.2063
116.144 100 82.3115
117.243 100 82.2646
118.353 100 82.2997
119.468 100 82.3212
120.553 100 82.2371
121.665 100 82.3941
122.891 100 82.4431
123.933 100 82.961
125.025 100 83.0188
126.153 100 83.0231
127.279 100 83.0245
128.391 100 83.0232
129.511 100 83.0217
130.619 100 83.0255
131.718 100 83.0289
132.825 100 83.0339
133.932 100 83.0312
135.036 100 83.0304
136.149 100 83.0183
137.266 100 83.004
138.392 100 82.9946
139.534 100 82.9845
140.679 100 82.961
141.754 100 83.1391
142.718 100 82.6051
143.726 100 83.2108
144.729 100 82.7458
79.668 100 83.8127
80.7389 100 84.2406
81.741 100 83.6918
82.7219 100 84.1914
83.8428 100 84.0698
84.9775 100 84.0933
86.102 100 84.1049
87.2147 100 84.1116
88.3211 100 84.1207
89.4254 100 84.1273
90.5223 100 84.1253
91.6221 100 84.1258
92.7237 100 84.1224
93.818 100 84.1208
94.9226 100 84.1182
96.0418 100 84.1187
97.1544 100 84.1188
98.2859 100 84.1166
99.4222 100 84.1152
100.536 100 84.0017
101.523 100 83.4878
102.652 100 83.5264
103.718 100 83.3517
104.871 100 83.4195
106.036 100 83.2733
107.174 100 83.2601
108.317 100 83.3138
109.453 100 83.2358
110.572 100 83.0596
111.679 100 82.9254
112.813 100 82.9254
113.92 100 83.0596
115.039 100 83.2358
116.176 100 83.3138
117.319 100 83.2601
118.456 100 83.2733
119.622 100 83.4195
120.774 100 83.3517
121.84 100 83.5264
122.969 100 83.4878
123.957 100 84.0017
125.07 100 84.1152
126.206 100 84.1166
127.338 100 84.1188
128.451 100 84.1187
129.57 100 84.1182
130.674 100 84.1208
131.769 100 84.1224
132.87 100 84.1258
133.97 100 84.1253
135.067 100 84.1273
136.171 100 84.1207
137.278 100 84.1116
138.39 100 84.1049
139.515 100 84.0933
140.65 100 84.0698
141.771 100 84.1914
142.751 100 83.6918
143.753 100 84.2406
144.824 100 83.8127
79.6874 100 84.9821
80.7395 100 85.2894
81.7536 100 84.8428
82.8008 100 85.2388
83.9077 100 85.1813
85.0162 100 85.196
86.1227 100 85.2025
87.2252 100 85.2061
88.3263 100 85.2109
89.4293 100 85.2138
90.5275 100 85.2114
91.6302 100 85.2114
92.7342 100 85.2098
93.8306 100 85.2095
94.9395 100 85.2075
96.0624 100 85.2068
97.1771 100 85.2059
98.3095 100 85.2047
99.4237 100 85.2141
100.551 100 85.0468
[...]
POINT_DATA 1600
SCALARS mass double
LOOKUP_TABLE default
1
1
1
1
1
1
1
1
1
1
1
1
1
1
1
1
1
1
1
1
1
1
1
1
1
1
1
1
1
1
1
1
1
1
1
1
1
1
1
1
1
1
1
1
1
1
1
1
1
1
1
1
1
1
1
1
1
1
1
1
1
1
1
1
1
1
1
1
1
1
1
1
1
1
1
1
1
1
1
1
1
1
1
1
1
1
1
1
1
1
1
1
1
1
1
1
1
1
1
1
1
1
1
1
1
1
1
1
1
1
1
1
1
1
1
1
1
1
1
1
1
1
1
1
1
1
1
1
1
1
1
1
1
1
1
1
1
1
1
1
1
1
1
1
1
1
1
1
1
1
1
1
1
1
1
1
1
1
1
1
1
1
1
1
1
1
1
1
1
1
1
1
1
1
1
1
1
1
1
1
1
1
1
1
1
1
1
1
1
1
1
1
1
1
1
1
1
1
1
1
1
1
1
1
1
1
1
1
1
1
1
1
1
1
1
1
1
1
1
1
1
1
1
1
1
1
1
1
1
1
1
1
1
1
1
1
1
1
1
1
1
1
1
1
1
1
1
1
1
1
1
1
1
1
1
1
1
1
1
1
1
1
1
1
1
1
1
1
1
1
1
1
1
1
1
1
1
1
1
1
1
1
1
1
1
1
1
1
1
1
1
1
1
1
1
1
1
1
1
1
1
1
1
1
1
1
1
1
1
1
1
1
1
1
1
1
1
1
1
1
1
1
1
1
1
1
1
1
1
1
1
1
1
1
1
1
1
1
1
1
1
1
1
1
1
1
1
1
1
1
1
1
1
1
1
1
1
1
1
1
1
1
1
1
1
1
1
1
1
1
1
1
1
1
1
1
1
1
1
1
1
1
1
1
1
1
1
1
1
1
1
1
1
1
1
1
1
1
1
1
1
1
1
1
1
1
1
1
1
1
1
1
1
1
1
1
1
1
1
1
1
1
1
1
1
1
1
1
1
1
1
1
1
1
1
1
1
1
1
1
1
1
1
1
1
1
1
1
1
1
1
1
1
1
1
1
1
1
1
1
1
1
1
1
1
1
1
1
1
1
1
1
1
1
1
1
1
1
1
1
1
1
1
1
1
1
1
1
1
1
1
1
1
1
1
1
1
1
1
1
1
1
1
1
1
1
1
1
1
1
1
1
1
1
1
1
1
1
1
1
1
1
1
1
1
1
1
1
1
1
1
1
1
1
1
1
1
1
1
1
1
1
1
1
1
1
1
1
1
1
1
1
1
1
1
1
1
1
1
1
1
1
1
1
1
1
1
1
1
1
1
1
1
1
1
1
1
1
1
1
1
1
1
1
1
1
1
1
1
1
1
1
1
1
1
1
1
1
1
1
1
1
1
1
1
1
1
1
1
1
1
1
1
1
1
1
1
1
1
1
1
1
1
1
1
1
1
1
1
1
1
1
1
1
1
1
1
1
1
1
1
1
1
1
1
1
1
1
1
1
1
1
1
1
1
1
1
1
1
1
1
1
1
1
1
1
1
1
1
1
1
1
1
1
1
1
1
1
1
1
1
1
1
1
1
1
1
1
1
1
1
1
1
1
1
1
1
1
1
1
1
1
1
1
1
1
1
1
1
1
1
1
1
1
1
1
1
1
1
1
1
1
1
1
1
1
1
1
1
1
1
1
1
1
1
1
1
1
1
1
1
1
1
1
1
1
1
1
1
1
1
1
1
1
1
1
1
1
1
1
1
1
1
1
1
1
1
1
1
1
1
1
1
1
1
1
1
1
1
1
1
1
1
1
1
1
1
1
1
1
1
1
1
1
1
1
1
1
1
1
1
1
1
1
1
1
1
1
1
1
1
1
1
1
1
1
1
1
1
1
1
1
1
1
1
1
1
1
1
1
1
1
1
1
1
1
1
1
1
1
1
1
1
1
1
1
1
1
1
1
1
1
1
1
1
1
1
1
1
1
1
1
1
1
1
1
1
1
1
1
1
1
1
1
1
1
1
1
1
1
1
1
1
1
1
1
1
1
1
1
1
1
1
1
1
1
1
1
1
1
1
1
1
1
1
1
1
1
1
1
1
1
1
1
1
1
1
1
1
1
1
1
1
1
1
1
1
1
1
1
1
1
1
1
1
1
1
1
1
1
1
1
1
1
1
1
1
1
1
1
1
1
1
1
1
1
1
1
1
1
1
1
1
1
1
1
1
1
1
1
1
1
1
1
1
1
1
1
1
1
1
1
1
1
1
1
1
1
1
1
1
1
1
1
1
1
1
1
1
1
1
1
1
1
1
1
1
1
1
1
1
1
1
1
1
1
1
1
1
1
1
1
1
1
1
1
1
1
1
1
1
1
1
1
1
1
1
1
1
1
1
1
1
1
1
1
1
1
1
1
1
1
1
1
1
1
1
1
1
1
1
1
1
1
1
1
1
1
1
1
1
1
1
1
1
1
1
1
1
1
1
1
1
1
1
1
1
1
1
1
1
1
1
1
1
1
1
1
1
1
1
1
1
1
1
1
1
1
1
1
1
1
1
1
1
1
1
1
1
1
1
1
1
1
1
1
1
1
1
1
1
1
1
1
1
1
1
1
1
1
1
1
1
1
1
1
1
1
1
1
1
1
1
1
1
1
1
1
1
1
1
1
1
1
1
1
1
1
1
1
1
1
1
1
1
1
1
1
1
1
1
1
1
1
1
1
1
1
1
1
1
1
1
1
1
1
1
1
1
1
1
1
1
1
1
1
1
1
1
1
1
1
1
1
1
1
1
1
1
1
1
1
1
1
1
1
1
1
1
1
1
1
1
1
1
1
1
1
1
1
1
1
1
1
1
1
1
1
1
1
1
1
1
1
1
1
1
1
1
1
1
1
1
1
1
1
1
1
1
1
1
1
1
1
1
1
1
1
1
1
1
1
1
1
1
1
1
1
1
1
1
1
1
1
1
1
1
1
1
1
1
1
1
1
1
1
1
1
1
1
1
1
1
1
1
1
1
1
1
1
1
1
1
1
1
1
1
1
1
1
1
1
1
1
1
1
1
1
1
1
1
1
1
1
1
1
1
1
1
1
1
1
1
1
1
1
1
1
1
1
1
1
1
1
1
1
1
1
1
1
1
1
1
1
1
1
1
1
1
1
1
1
1
1
1
1
1
1
1
1
1
1
1
1
1
1
1
1
1
1
1
1
1
1
1
1
1
1
1
1
1
1
1
1
1
1
1
1
1
1
1
1
1
1
1
1
1
1
1
1
1
1
1
1
1
1
1
1
1
1
1
1
1
1
1
1
1
1
1
1
1
1
1
1
1
1
1
1
1
1
1
1
1
1
1
1
1
1
1
1
1
1
1
1
1
1
1
1
1
1
1
1
1
1
1
1
1
1
1
1
1
1
1
1
1
1
1
1
1
1
1
1
1
1
1
1
1
1
1
1
1
1
1
1
1
1
1
1
1
1
1
1
1
1
1
1
1
1
1
1
1
1
1
1
1
1
1
1
1
1
1
1
1
1
1
1
1
1
1
1
1
1
1
1
1
1
1
1
1
1
1
1
1
1
1
1
1
1
1
1
1
1
1
1
1
1
1
1
1
1
1
1
1
1
1
1
1
1
1
1
1
1
1
1
1
1
1
1
1
1
VECTORS force double
-17.628 0 -29.872
12.5493 0 -2.09265
-9.48349 0 -8.58063
4.30542 0 -14.6142
3.64576 0 4.84645
-3.93723 0 3.04739
-18.6552 0 -12.5397
-19.2021 0 -37.6541
-22.3701 0 -14.8542
-16.3466 0 10.2865
33.6927 0 12.3621
19.5568 0 4.35816
24.4076 0 -30.3898
7.59777 0 -10.4399
-7.35225 0 8.22396
-7.84572 0 6.77335
-7.8444 0 1.12431
-119.723 0 -1.49268
108.717 0 -10.3568
15.1881 0 0.388545
5.00625 0 6.94714
-0.728991 0 5.75959
-2.27057 0 7.96293
-5.41859 0 4.47072
-2.84591 0 7.01094
0.569655 0 10.5326
1.38806 0 14.6005
1.51819 0 16.2439
1.03387 0 14.5459
0.403523 0 10.3481
-0.403523 0 10.3481
-1.03387 0 14.5459
-1.51819 0 16.2439
-1.38806 0 14.6005
-0.569655 0 10.5326
2.84591 0 7.01094
5.41859 0 4.47072
2.27057 0 7.96293
0.728991 0 5.75959
-5.00625 0 6.94714
-15.1881 0 0.388545
-108.717 0 -10.3568
119.723 0 -1.49268
7.8444 0 1.12431
7.84572 0 6.77335
7.35225 0 8.22396
-7.59777 0 -10.4399
-24.4076 0 -30.3898
-19.5568 0 4.35816
-33.6927 0 12.3621
16.3466 0 10.2865
22.3701 0 -14.8542
19.2021 0 -37.6541
18.6552 0 -12.5397
3.93723 0 3.04739
-3.64576 0 4.84645
-4.30542 0 -14.6142
9.48349 0 -8.58063
-12.5493 0 -2.09265
17.628 0 -29.872
-2.04567 0 19.118
-3.94734 0 2.74281
-20.7833 0 -6.79628
2.73426 0 4.05695
3.78421 0 -7.58003
-13.589 0 -58.5814
-9.66436 0 -18.8855
18.3442 0 47.2289
8.39569 0 18.9128
-18.7861 0 -33.7002
13.8321 0 -34.6969
-13.5173 0 17.8797
-17.7313 0 13.9976
-36.0271 0 -3.20517
4.25306 0 -3.26058
-21.6812 0 -2.72096
35.5083 0 0.468789
-26.5021 0 -8.51302
90.1365 0 -0.70888
-6.89342 0 12.1311
8.03531 0 3.54488
-36.134 0 17.1871
13.8562 0 -5.32688
20.1879 0 9.91274
-0.572698 0 1.75169
-0.7041 0 -5.36233
-0.343389 0 -10.5824
-0.107655 0 -10.1847
0.121081 0 -5.0537
0.0433011 0 4.47955
-0.0433011 0 4.47955
-0.121081 0 -5.0537
0.107655 0 -10.1847
0.343389 0 -10.5824
0.7041 0 -5.36233
0.572698 0 1.75169
-20.1879 0 9.91274
-13.8562 0 -5.32689
36.134 0 17.1871
-8.03531 0 3.54488
6.89342 0 12.1311
-90.1365 0 -0.70888
26.5021 0 -8.51302
-35.5083 0 0.468789
21.6812 0 -2.72096
-4.25306 0 -3.26058
36.0271 0 -3.20517
17.7313 0 13.9976
13.5173 0 17.8797
-13.8321 0 -34.6969
18.7861 0 -33.7002
-8.39569 0 18.9128
-18.3442 0 47.2289
9.66436 0 -18.8855
13.589 0 -58.5814
-3.78421 0 -7.58003
-2.73426 0 4.05695
20.7833 0 -6.79628
3.94734 0 2.74281
2.04567 0 19.118
-12.708 0 -17.4457
-9.45671 0 -8.22934
28.3308 0 15.2348
-13.8862 0 11.4148
5.78198 0 -31.5675
-36.1797 0 -25.074
46.8104 0 55.1141
30.4112 0 51.1107
-4.12514 0 -8.16127
-14.8362 0 -54.5556
-6.55314 0 47.9995
-10.3465 0 23.6397
-4.79203 0 2.35644
0.187319 0 1.31583
0.711983 0 5.33914
-1.91182 0 8.78733
-47.7232 0 13.7469
19.8811 0 14.8173
53.0539 0 8.67896
-119.447 0 -122.773
7.80358 0 8.96731
1.69535 0 3.59886
-19.4905 0 1.15272
-29.979 0 9.91148
-3.93446 0 16.793
-66.7862 0 -139.409
-3.10087 0 -30.8734
-32.5695 0 17.0335
-18.3629 0 12.7235
2.73783 0 -12.7837
-2.73783 0 -12.7837
18.3629 0 12.7235
32.5695 0 17.0335
3.10087 0 -30.8734
66.7862 0 -139.409
3.93446 0 16.793
29.979 0 9.91148
19.4905 0 1.15272
-1.69535 0 3.59886
-7.80358 0 8.96731
119.447 0 -122.773
-53.0539 0 8.67896
-19.8811 0 14.8173
47.7232 0 13.7469
1.91182 0 8.78733
-0.711983 0 5.33914
-0.187319 0 1.31583
4.79203 0 2.35644
10.3465 0 23.6397
6.55314 0 47.9995
14.8362 0 -54.5556
4.12514 0 -8.16127
-30.4112 0 51.1107
-46.8104 0 55.1141
36.1797 0 -25.074
-5.78198 0 -31.5675
13.8862 0 11.4148
-28.3308 0 15.2348
9.45671 0 -8.22934
12.708 0 -17.4457
-8.02015 0 13.3723
-4.17607 0 -19.9915
9.43356 0 -14.6943
-3.04719 0 -5.97923
0.447954 0 28.741
14.776 0 36.5936
8.39387 0 -0.110652
-4.51076 0 -40.1306
-2.64752 0 -28.0366
15.9198 0 66.8703
-3.32662 0 18.6685
-4.35179 0 5.14084
-2.21463 0 5.87191
-6.87533 0 6.97189
7.56736 0 5.43978
-10.5933 0 6.46607
-4.48947 0 7.89312
-3.66002 0 11.696
-14.4037 0 4.93171
-41.7769 0 23.1616
164.3 0 80.2929
-23.5842 0 2.19756
50.1999 0 -118.986
39.9161 0 -13.3297
-17.564 0 -32.3227
-31.9819 0 -57.6456
96.4502 0 182.013
21.0156 0 25.309
-3.05474 0 -6.08059
-5.48099 0 -29.7711
5.48099 0 -29.7711
3.05474 0 -6.08059
-21.0156 0 25.309
-96.4502 0 182.013
31.9819 0 -57.6456
17.564 0 -32.3227
-39.9161 0 -13.3297
-50.1999 0 -118.986
23.5842 0 2.19756
-164.3 0 80.2929
41.7769 0 23.1616
14.4037 0 4.93171
3.66002 0 11.696
4.48947 0 7.89312
10.5933 0 6.46607
-7.56736 0 5.43978
6.87533 0 6.97189
2.21463 0 5.87191
4.35179 0 5.14084
3.32662 0 18.6685
-15.9198 0 66.8703
2.64752 0 -28.0366
4.51076 0 -40.1306
-8.39387 0 -0.110652
-14.776 0 36.5936
-0.447954 0 28.741
3.04719 0 -5.97923
-9.43356 0 -14.6943
4.17607 0 -19.9915
8.02015 0 13.3723
16.7679 0 -6.60631
-4.7825 0 10.7484
-12.0233 0 1.97537
24.0974 0 -14.9752
-30.783 0 -14.202
21.796 0 -33.2413
15.2047 0 -46.1182
3.26168 0 14.126
5.94197 0 43.8402
3.66182 0 1.072
6.99514 0 -5.79625
6.02397 0 -5.86617
4.65293 0 -5.50014
10.2149 0 -4.1098
11.3318 0 -5.10565
5.17401 0 -5.49652
7.46963 0 -6.91093
-12.9004 0 -7.90845
-16.8103 0 -1.35453
3.68556 0 -42.0804
-2.06081 0 -28.0981
-62.204 0 -79.8874
-20.6044 0 -23.7681
65.4338 0 -78.4016
25.5447 0 17.5011
34.4271 0 38.0926
-16.7988 0 -5.89668
13.7732 0 -9.95927
6.63615 0 -104.524
-25.2148 0 5.66709
25.2148 0 5.66709
-6.63615 0 -104.524
-13.7732 0 -9.95927
16.7988 0 -5.89668
-34.4271 0 38.0926
-25.5447 0 17.5011
-65.4338 0 -78.4016
20.6044 0 -23.7681
62.204 0 -79.8874
2.06081 0 -28.0981
-3.68556 0 -42.0804
16.8103 0 -1.35453
12.9004 0 -7.90845
-7.46963 0 -6.91093
-5.17401 0 -5.49652
-11.3318 0 -5.10565
-10.2149 0 -4.1098
-4.65293 0 -5.50014
-6.02397 0 -5.86617
-6.99514 0 -5.79625
-3.66182 0 1.072
-5.94197 0 43.8402
-3.26168 0 14.126
-15.2047 0 -46.1182
-21.796 0 -33.2413
30.783 0 -14.202
-24.0974 0 -14.9752
12.0233 0 1.97537
4.7825 0 10.7484
-16.7679 0 -6.60631
6.14947 0 -4.02282
-15.9258 0 -8.22106
-7.7477 0 -9.34479
6.01417 0 -6.63579
-17.6325 0 -24.2511
17.3377 0 0.866472
-7.73366 0 36.028
-10.4051 0 15.3872
-7.63384 0 -5.5113
-9.32688 0 -8.62933
-6.41547 0 -9.46102
-4.52302 0 -9.67334
-10.0263 0 -9.58474
-4.88388 0 -9.75602
-1.73947 0 -10.4367
-10.2778 0 -10.5848
-3.26474 0 -10.7029
0.604162 0 -10.0371
-10.7364 0 -3.63355
-25.5483 0 -19.132
71.8842 0 24.0493
-89.3749 0 108.845
77.708 0 107.563
-30.1136 0 93.5084
-10.6684 0 6.73423
-30.2976 0 -91.3946
-5.59582 0 -19.9553
-13.1694 0 -95.9297
-26.7858 0 98.0713
-9.51641 0 -259.344
9.51641 0 -259.344
26.7858 0 98.0713
13.1694 0 -95.9297
5.59582 0 -19.9553
30.2976 0 -91.3946
10.6684 0 6.73423
30.1136 0 93.5084
-77.708 0 107.563
89.3749 0 108.845
-71.8842 0 24.0493
25.5483 0 -19.132
10.7364 0 -3.63355
-0.604162 0 -10.0371
3.26474 0 -10.7029
10.2778 0 -10.5848
1.73947 0 -10.4367
4.88388 0 -9.75602
10.0263 0 -9.58474
4.52302 0 -9.67334
6.41547 0 -9.46102
9.32688 0 -8.62933
7.63384 0 -5.5113
10.4051 0 15.3872
7.73366 0 36.028
-17.3377 0 0.866472
17.6325 0 -24.2511
-6.01417 0 -6.63579
7.7477 0 -9.34479
15.9258 0 -8.22106
-6.14947 0 -4.02282
8.77906 0 -12.2489
-7.71936 0 -32.4083
4.04329 0 24.217
-4.84847 0 -1.35975
13.511 0 28.0276
-0.227147 0 25.2775
-1.92094 0 7.13163
-0.604485 0 -0.166352
1.03589 0 -1.37155
0.0852511 0 -1.36827
4.85154 0 -1.68079
4.71047 0 -1.35045
1.98007 0 -1.60334
8.82844 0 -2.02674
8.70718 0 -2.70711
3.01779 0 -3.26485
9.82259 0 -2.90694
5.60544 0 -1.56676
-6.31972 0 4.90412
11.2188 0 -8.63161
4.2083 0 -34.8815
-6.79063 0 -3.69467
-4.75193 0 -0.997357
19.1606 0 -7.53233
26.3201 0 -170.343
23.9874 0 -29.4673
18.1142 0 -99.6634
12.7445 0 33.7018
8.30548 0 -201.302
6.93026 0 241.065
-6.93026 0 241.065
-8.30548 0 -201.302
-12.7445 0 33.7018
-18.1142 0 -99.6634
-23.9874 0 -29.4673
-26.3201 0 -170.343
-19.1606 0 -7.53233
4.75193 0 -0.997357
6.79063 0 -3.69467
-4.2083 0 -34.8815
-11.2188 0 -8.63161
6.31972 0 4.90412
-5.60544 0 -1.56676
-9.82259 0 -2.90694
-3.01779 0 -3.26485
-8.70718 0 -2.70711
-8.82844 0 -2.02674
-1.98007 0 -1.60334
-4.71047 0 -1.35045
-4.85154 0 -1.68079
-0.0852511 0 -1.36827
-1.03589 0 -1.37155
0.604485 0 -0.166352
1.92094 0 7.13163
0.227147 0 25.2775
-13.511 0 28.0276
4.84847 0 -1.35975
-4.04329 0 24.217
7.71936 0 -32.4083
-8.77906 0 -12.2489
17.3726 0 29.8791
-3.67551 0 27.6288
4.76434 0 22.6845
1.08143 0 6.03055
-1.512 0 -0.706629
-3.16771 0 -1.35829
-3.6588 0 -4.12916
-2.28104 0 -4.67563
-1.09834 0 -4.94222
-3.76261 0 -4.81621
-0.0255617 0 -4.13127
-0.859418 0 -3.44886
-5.0041 0 -3.46814
2.29728 0 -3.73969
2.56516 0 -4.29904
-4.25476 0 -4.16319
2.84254 0 -4.12193
-0.967178 0 -2.99235
-3.55975 0 2.39798
-6.04984 0 5.29568
7.08267 0 -67.9038
-22.3529 0 -43.7919
2.87464 0 -196.502
-5.4554 0 -59.9607
-28.0186 0 124.287
-11.3681 0 67.9684
-8.83907 0 -50.3182
-4.14697 0 -9.12389
-13.2913 0 146.564
1.55906 0 -7.97473
-1.55906 0 -7.97473
13.2913 0 146.564
4.14697 0 -9.12389
8.83907 0 -50.3182
11.3681 0 67.9684
28.0186 0 124.287
5.4554 0 -59.9607
-2.87464 0 -196.502
22.3529 0 -43.7919
-7.08267 0 -67.9038
6.04984 0 5.29568
3.55975 0 2.39798
0.967178 0 -2.99235
-2.84254 0 -4.12193
4.25476 0 -4.16319
-2.56516 0 -4.29904
-2.29728 0 -3.73969
5.0041 0 -3.46814
0.859418 0 -3.44886
0.0255617 0 -4.13127
3.76261 0 -4.81621
1.09834 0 -4.94222
2.28104 0 -4.67563
3.6588 0 -4.12916
3.16771 0 -1.35829
1.512 0 -0.706629
-1.08143 0 6.03055
-4.76434 0 22.6845
3.67551 0 27.6288
-17.3726 0 29.8791
4.75952 0 -46.1894
7.75257 0 1.46328
1.92291 0 -6.71993
-4.70639 0 18.7884
-0.920777 0 -3.88212
-0.475658 0 -2.98556
-1.33338 0 -3.32901
-0.361556 0 -3.66886
0.764901 0 -3.59852
-1.84327 0 -2.92268
1.94366 0 -2.13149
0.728767 0 -1.76375
-2.83941 0 -2.0678
5.19988 0 -2.5498
4.68887 0 -2.8202
-1.89622 0 -2.59551
5.2899 0 -1.84302
-4.56628 0 -0.347793
9.49881 0 3.78283
-18.5908 0 -27.4906
11.5156 0 -66.471
1.05168 0 -138.934
18.8011 0 102.977
7.7216 0 21.9226
-0.841042 0 0.192026
8.04357 0 -152.429
3.55036 0 108.88
3.27425 0 -210.137
-6.7628 0 50.9457
4.21707 0 -1.93823
-4.21707 0 -1.93823
6.7628 0 50.9457
-3.27425 0 -210.137
-3.55036 0 108.88
-8.04357 0 -152.429
0.841042 0 0.192026
-7.7216 0 21.9226
-18.8011 0 102.977
-1.05168 0 -138.934
-11.5156 0 -66.471
18.5908 0 -27.4906
-9.49881 0 3.78283
4.56628 0 -0.347793
-5.2899 0 -1.84302
1.89622 0 -2.59551
-4.68887 0 -2.8202
-5.19988 0 -2.5498
2.83941 0 -2.0678
-0.728767 0 -1.76375
-1.94366 0 -2.13149
1.84327 0 -2.92268
-0.764901 0 -3.59852
0.361556 0 -3.66886
1.33338 0 -3.32901
0.475658 0 -2.98556
0.920777 0 -3.88212
4.70639 0 18.7884
-1.92291 0 -6.71993
-7.75257 0 1.46328
-4.75952 0 -46.1894
3.18284 0 27.2903
-0.382316 0 -19.4676
-2.04117 0 -13.3124
-0.861252 0 5.29906
1.41427 0 0.254614
2.54234 0 1.6303
1.5315 0 1.83796
1.0706 0 1.80618
2.56677 0 1.86243
-0.856411 0 2.02314
2.12703 0 1.95209
0.819636 0 1.77893
-3.05928 0 1.28791
5.60618 0 0.952437
4.21234 0 0.713377
-2.7066 0 1.49512
3.23257 0 3.1633
-8.18313 0 5.03761
15.7147 0 -19.7852
-18.5744 0 -0.465245
21.1208 0 143.553
-6.87696 0 17.805
6.37322 0 -172.952
0.192746 0 36.0101
-4.51198 0 -162.093
-2.11709 0 159.609
-9.67281 0 -82.456
-16.1033 0 228.941
1.6248 0 9.50567
0.659793 0 -14.2072
-0.659793 0 -14.2072
-1.6248 0 9.50567
16.1033 0 228.941
9.67281 0 -82.456
2.11709 0 159.609
4.51198 0 -162.093
-0.192746 0 36.0101
-6.37322 0 -172.952
6.87696 0 17.805
-21.1208 0 143.553
18.5744 0 -0.465245
-15.7147 0 -19.7852
8.18313 0 5.03761
-3.23257 0 3.1633
2.7066 0 1.49512
-4.21234 0 0.713377
-5.60618 0 0.952437
3.05928 0 1.28791
-0.819636 0 1.77893
-2.12703 0 1.95209
0.856411 0 2.02314
-2.56677 0 1.86243
-1.0706 0 1.80618
-1.5315 0 1.83796
-2.54234 0 1.6303
-1.41427 0 0.254614
0.861252 0 5.29906
2.04117 0 -13.3124
0.382316 0 -19.4676
-3.18284 0 27.2903
3.18284 0 -27.2903
-0.382313 0 19.4676
-2.04116 0 13.3124
-0.861247 0 -5.29908
1.4143 0 -0.254624
2.54251 0 -1.63035
1.53219 0 -1.83817
1.07268 0 -1.80647
2.56986 0 -1.86557
-0.858485 0 -2.02121
2.11006 0 -1.98289
0.849634 0 -1.89478
-2.78185 0 -1.58332
5.75524 0 -1.2499
3.61714 0 -0.522631
-3.74826 0 1.01486
0.386475 0 4.02552
-3.49129 0 7.68353
7.28575 0 -166.244
-25.457 0 22.3921
21.3593 0 -46.8262
3.4306 0 55.2193
25.037 0 29.6809
8.55646 0 -36.2789
4.31084 0 184.493
8.64817 0 30.0191
11.9931 0 126.338
6.66962 0 -29.4673
24.7216 0 -25.3982
11.0129 0 -293.839
-11.0129 0 -293.839
-24.7216 0 -25.3982
-6.66962 0 -29.4673
-11.9931 0 126.338
-8.64817 0 30.0191
-4.31084 0 184.493
-8.55646 0 -36.2789
-25.037 0 29.6809
-3.4306 0 55.2193
-21.3593 0 -46.8262
25.457 0 22.3921
-7.28575 0 -166.244
3.49129 0 7.68353
-0.386475 0 4.02552
3.74826 0 1.01486
-3.61714 0 -0.522631
-5.75524 0 -1.2499
2.78185 0 -1.58332
-0.849634 0 -1.89478
-2.11006 0 -1.98289
0.858485 0 -2.02121
-2.56986 0 -1.86557
-1.07268 0 -1.80647
-1.53219 0 -1.83817
-2.54251 0 -1.63035
-1.4143 0 -0.254624
0.861247 0 -5.29908
2.04116 0 13.3124
0.382313 0 19.4676
-3.18284 0 -27.2903
4.75952 0 46.1894
7.75257 0 -1.46329
1.92294 0 6.71995
-4.70647 0 -18.7883
-0.920912 0 3.88207
-0.476102 0 2.98539
-1.33519 0 3.3288
-0.367795 0 3.66874
0.748106 0 3.5921
-1.86989 0 2.91664
1.98794 0 2.06508
1.11663 0 1.5422
-1.79389 0 1.8805
5.82693 0 2.95725
3.57776 0 5.03241
-3.27727 0 7.89801
2.37606 0 12.7683
6.67494 0 -2.79262
-129.897 0 -18.3311
-6.44782 0 15.0088
-53.7699 0 -144.858
-30.6485 0 24.8948
-37.5374 0 101.845
-79.1016 0 -72.452
3.78884 0 -10.6297
80.5725 0 -209.154
65.3182 0 -299.863
-8.58809 0 63.3893
-65.578 0 -130.252
-27.4893 0 263.436
27.4893 0 263.436
65.578 0 -130.252
8.58809 0 63.3893
-65.3182 0 -299.863
-80.5725 0 -209.154
-3.78884 0 -10.6297
79.1016 0 -72.452
37.5374 0 101.845
30.6485 0 24.8948
53.7699 0 -144.858
6.44782 0 15.0088
129.897 0 -18.3311
-6.67494 0 -2.79262
-2.37606 0 12.7683
3.27727 0 7.89801
-3.57776 0 5.03241
-5.82693 0 2.95725
1.79389 0 1.8805
-1.11663 0 1.5422
-1.98794 0 2.06508
1.86989 0 2.91664
-0.748106 0 3.5921
0.367795 0 3.66874
1.33519 0 3.3288
0.476102 0 2.98539
0.920912 0 3.88207
4.70647 0 -18.7883
-1.92294 0 6.71995
-7.75257 0 -1.46329
-4.75952 0 46.1894
17.3726 0 -29.8791
-3.6755 0 -27.6287
4.76387 0 -22.6846
1.08181 0 -6.03041
-1.51124 0 0.706464
-3.16616 0 1.35879
-3.65362 0 4.13169
-2.26721 0 4.68937
-1.07212 0 4.9254
-3.68882 0 4.77752
0.268891 0 3.90728
0.0800574 0 3.09271
-2.75476 0 4.57489
4.3103 0 7.59408
2.21658 0 10.2305
-29.1642 0 9.23035
-303.802 0 21.6009
234.228 0 -172.958
-58.8109 0 -124.742
219.563 0 159.825
14.8696 0 188.645
-17.4156 0 -67.8906
-57.5147 0 -175.914
-54.7131 0 31.2191
-105.947 0 205.482
-233.118 0 34.4736
8.09395 0 7.608
-35.5446 0 18.0355
-355.835 0 133.703
-309.199 0 -5.99793
309.199 0 -5.99794
355.835 0 133.703
35.5446 0 18.0355
-8.09395 0 7.608
233.118 0 34.4736
105.947 0 205.482
54.7131 0 31.2191
57.5147 0 -175.914
17.4156 0 -67.8906
-14.8696 0 188.645
-219.563 0 159.825
58.8109 0 -124.742
-234.228 0 -172.958
303.802 0 21.6009
29.1642 0 9.23035
-2.21658 0 10.2305
-4.3103 0 7.59408
2.75476 0 4.57489
-0.0800574 0 3.09271
-0.268891 0 3.90728
3.68882 0 4.77752
1.07212 0 4.9254
2.26721 0 4.68937
3.65362 0 4.13169
3.16616 0 1.35879
1.51124 0 0.706464
-1.08181 0 -6.03041
-4.76387 0 -22.6846
3.6755 0 -27.6287
-17.3726 0 -29.8791
8.77902 0 12.2489
-7.71924 0 32.4083
4.04715 0 -24.215
-4.85107 0 1.35979
13.5058 0 -28.0308
-0.243292 0 -25.2696
-1.92436 0 -7.02629
-0.650065 0 -0.304561
0.913039 0 1.18366
-0.11912 0 1.07248
4.92144 0 0.859265
6.14821 0 2.10831
4.66507 0 10.0245
8.41995 0 15.4853
-4.27921 0 11.6162
-187.56 0 -2.12989
146.69 0 19.7358
-108.205 0 7.28368
27.462 0 80.0962
-22.5937 0 -52.7043
-121.738 0 -310.919
51.221 0 -107.337
-93.0324 0 94.9053
189.492 0 159.544
84.4506 0 -42.0314
-158.455 0 -276.083
56.213 0 31.8472
-3.19033 0 -43.4067
-99.1411 0 -136.016
33.8029 0 -51.6542
-33.8029 0 -51.6542
99.1411 0 -136.016
3.19033 0 -43.4067
-56.213 0 31.8472
158.455 0 -276.083
-84.4506 0 -42.0314
-189.492 0 159.544
93.0324 0 94.9053
-51.221 0 -107.337
121.738 0 -310.919
22.5937 0 -52.7043
-27.462 0 80.0962
108.205 0 7.28368
-146.69 0 19.7358
187.56 0 -2.12989
4.27921 0 11.6162
-8.41995 0 15.4853
-4.66507 0 10.0245
-6.14821 0 2.10831
-4.92144 0 0.859265
0.11912 0 1.07248
-0.913039 0 1.18366
0.650065 0 -0.304561
1.92436 0 -7.02629
0.243292 0 -25.2696
-13.5058 0 -28.0308
4.85107 0 1.35979
-4.04715 0 -24.215
7.71924 0 32.4083
-8.77902 0 12.2489
6.14953 0 4.0229
-15.9258 0 8.22106
-7.75002 0 9.34032
6.01746 0 6.63499
-17.5783 0 24.2441
17.3777 0 -0.867907
-7.46616 0 -35.2891
-11.0445 0 -25.1224
-7.8228 0 3.92979
-8.9576 0 8.28397
-5.62517 0 8.46422
-49.5978 0 10.4901
-276.56 0 6.4303
306.296 0 14.0868
3.95276 0 5.36546
-67.9192 0 -1.32087
62.9319 0 6.38017
-6.24936 0 -107.324
124.016 0 202.244
-40.7706 0 -65.7711
77.0995 0 295.486
268.599 0 -299.709
-171.402 0 -75.48
-16.8589 0 -23.1599
-36.7911 0 -201.724
150.827 0 159.724
106.469 0 212.007
-44.9429 0 19.8797
79.5455 0 39.1362
-15.01 0 125.951
15.01 0 125.951
-79.5455 0 39.1362
44.9429 0 19.8797
-106.469 0 212.007
-150.827 0 159.724
36.7911 0 -201.724
16.8589 0 -23.1599
171.402 0 -75.48
-268.599 0 -299.709
-77.0995 0 295.486
40.7706 0 -65.7711