# vtk DataFile Version 3.0
SiWiRVisFile
ASCII
DATASET UNSTRUCTURED_GRID
POINTS 1600 DOUBLE
77.1609 100 74.3442
78.5502 100 74.7928
79.533 100 75.3294
81.2869 100 74.853
82.3282 100 75.1669
83.5362 100 75.3567
84.9849 100 75.3103
86.115 100 75.6275
87.2546 100 76.1199
87.2391 100 74.9677
90.151 100 75.79
91.2126 100 75.5881
90.4279 100 74.6212
91.0757 100 73.3922
90.2422 100 72.3872
93.0074 100 69.0077
94.0701 100 68.6457
96.1816 100 68.6306
95.0267 100 66.2874
98.3773 100 67.9926
103.784 100 56.9638
103.43 100 59.4595
104.158 100 58.5423
106.015 100 57.9747
104.786 100 57.5619
107.642 100 57.4224
109.428 100 55.367
109.519 100 54.3104
110.751 100 55.1541
111.546 100 54.3773
112.946 100 54.3773
113.741 100 55.1541
114.973 100 54.3104
115.064 100 55.367
116.85 100 57.4224
119.707 100 57.5619
118.477 100 57.9747
120.334 100 58.5423
121.062 100 59.4595
120.708 100 56.9638
126.115 100 67.9927
129.466 100 66.2874
128.311 100 68.6306
130.422 100 68.6457
131.485 100 69.0076
134.25 100 72.3871
133.417 100 73.3922
134.064 100 74.6212
133.28 100 75.588
134.341 100 75.79
137.253 100 74.9677
137.238 100 76.1199
138.377 100 75.6275
139.508 100 75.3103
140.956 100 75.3567
142.164 100 75.1669
143.206 100 74.853
144.959 100 75.3294
145.942 100 74.7928
147.331 100 74.3442
77.5558 100 75.4693
78.6158 100 76.0308
80.5842 100 75.7179
81.6625 100 76.0427
82.7709 100 76.1967
84.0854 100 76.1962
85.2087 100 76.3735
86.2744 100 76.7123
87.4037 100 77.2057
88.6053 100 77.3412
89.8123 100 76.9342
91.6618 100 76.6132
91.4688 100 74.4729
92.1811 100 73.358
92.8356 100 72.4581
91.6587 100 72.3697
94.9337 100 69.5229
97.2566 100 68.1243
98.0925 100 69.1722
100.039 100 68.1652
103.188 100 58.0676
100.003 100 63.235
104.335 100 63.9077
109.62 100 58.0741
106.309 100 56.8801
107.131 100 58.5733
108.468 100 58.0062
109.191 100 56.944
110.325 100 56.3114
111.693 100 55.9053
112.8 100 55.9054
114.167 100 56.3114
115.302 100 56.944
116.024 100 58.0062
117.362 100 58.5733
118.184 100 56.8801
114.872 100 58.0741
120.158 100 63.9077
124.489 100 63.235
121.304 100 58.0676
124.454 100 68.1652
126.4 100 69.1723
127.236 100 68.1242
129.559 100 69.5229
132.834 100 72.3697
131.657 100 72.4581
132.311 100 73.358
133.024 100 74.4729
132.831 100 76.6132
134.68 100 76.9342
135.887 100 77.3412
137.089 100 77.2057
138.218 100 76.7123
139.284 100 76.3735
140.407 100 76.1962
141.721 100 76.1967
142.83 100 76.0427
143.908 100 75.7179
145.877 100 76.0308
146.937 100 75.4693
77.7046 100 76.6058
78.7325 100 77.0997
79.6448 100 76.4323
80.7756 100 76.7533
81.7556 100 77.1241
83.4599 100 77.09
84.5322 100 77.3602
85.6623 100 77.7912
86.6847 100 78.0237
87.8866 100 78.2255
89.2011 100 78.3568
90.3253 100 78.6507
91.4058 100 78.1392
92.4547 100 75.6275
93.934 100 72.6227
94.5524 100 71.7728
94.8373 100 70.6828
95.8953 100 70.027
97.0848 100 69.3893
99.0769 100 68.6872
101.483 100 67.7132
103.272 100 64.5434
105.103 100 64.6669
106.036 100 64.1511
106.487 100 61.3686
107.786 100 63.9727
108.003 100 62.7941
106.778 100 63.1737
110.536 100 57.3574
111.69 100 57.0248
112.802 100 57.0249
113.956 100 57.3574
117.714 100 63.1738
116.489 100 62.7946
116.707 100 63.9728
118.006 100 61.3684
118.456 100 64.15
119.389 100 64.667
121.22 100 64.5433
123.009 100 67.7131
125.416 100 68.6873
127.408 100 69.3893
128.597 100 70.027
129.655 100 70.6829
129.94 100 71.7728
130.558 100 72.6228
132.038 100 75.6275
133.087 100 78.1392
134.167 100 78.6507
135.291 100 78.3568
136.606 100 78.2255
137.808 100 78.0237
138.83 100 77.7912
139.96 100 77.3602
141.033 100 77.09
142.737 100 77.1241
143.717 100 76.7533
144.848 100 76.4323
145.76 100 77.0997
146.788 100 76.6058
77.7513 100 77.7264
78.7656 100 78.2464
79.7552 100 77.6664
80.8494 100 77.868
82.5978 100 77.842
83.7434 100 78.2197
84.7578 100 78.4583
85.8703 100 78.8049
87.1714 100 79.0679
88.4123 100 79.2244
89.4932 100 79.417
90.5162 100 79.7856
91.507 100 79.2736
93.3151 100 74.8529
93.2781 100 73.5538
95.5075 100 73.686
95.3457 100 72.5751
95.6674 100 71.5363
96.8243 100 70.8544
97.7817 100 70.3928
99.193 100 69.707
101.004 100 68.6653
104.313 100 65.3609
104.921 100 66.5738
105.603 100 65.6525
106.633 100 65.112
108.788 100 65.3164
109.84 100 64.9478
109.019 100 63.0892
111.037 100 58.2554
113.456 100 58.2554
115.473 100 63.0891
114.652 100 64.9479
115.705 100 65.316
117.86 100 65.111
118.889 100 65.6526
119.572 100 66.5738
120.179 100 65.3609
123.488 100 68.6651
125.299 100 69.707
126.711 100 70.3928
127.668 100 70.8544
128.825 100 71.5363
129.147 100 72.575
128.985 100 73.686
131.214 100 73.5538
131.177 100 74.8529
132.985 100 79.2735
133.976 100 79.7856
134.999 100 79.417
136.08 100 79.2244
137.321 100 79.0679
138.622 100 78.8049
139.735 100 78.4583
140.749 100 78.2197
141.895 100 77.842
143.643 100 77.868
144.737 100 77.6664
145.727 100 78.2464
146.741 100 77.7264
77.6921 100 78.7869
78.7101 100 79.3485
79.8716 100 78.6941
81.6468 100 78.5037
82.7511 100 79.0051
83.9526 100 79.2887
84.997 100 79.5163
86.3918 100 79.8441
87.7485 100 80.012
88.762 100 80.3436
89.456 100 81.1511
91.3758 100 80.4036
92.4591 100 78.8067
94.6672 100 76.087
94.3646 100 74.128
96.2609 100 74.798
96.5395 100 73.4024
96.6591 100 72.2723
97.7131 100 71.6484
98.9281 100 71.2582
100.248 100 69.571
103.033 100 69.5349
106.125 100 66.7841
107.202 100 66.4479
107.733 100 65.145
108.365 100 66.5149
109.43 100 66.4912
110.542 100 66.9479
108.797 100 64.2976
111.506 100 60.1766
112.987 100 60.1765
115.696 100 64.2972
113.951 100 66.948
115.062 100 66.4911
116.128 100 66.515
116.76 100 65.1458
117.289 100 66.4475
118.368 100 66.7848
121.46 100 69.5349
124.244 100 69.571
125.564 100 71.2581
126.779 100 71.6483
127.833 100 72.2723
127.953 100 73.4024
128.231 100 74.7981
130.128 100 74.1279
129.825 100 76.0869
132.033 100 78.8066
133.117 100 80.4036
135.036 100 81.1511
135.73 100 80.3436
136.744 100 80.012
138.101 100 79.8441
139.495 100 79.5163
140.54 100 79.2887
141.741 100 79.0051
142.846 100 78.5037
144.621 100 78.6941
145.782 100 79.3485
146.8 100 78.7869
77.912 100 80.0136
78.8534 100 80.6487
79.7567 100 79.7374
80.8575 100 79.2168
81.9288 100 79.8892
83.0489 100 80.0978
84.0699 100 80.4445
85.0916 100 80.6652
86.2103 100 80.9906
87.2923 100 81.0076
88.3534 100 81.4347
90.5063 100 81.4489
92.51 100 80.8711
93.665 100 78.6802
94.2335 100 77.2394
95.1262 100 75.0611
97.4722 100 75.1425
97.562 100 73.9725
98.4217 100 72.6019
99.4912 100 72.339
99.9754 100 70.5358
101.822 100 69.6275
104.252 100 69.4407
105.334 100 69.4094
105.887 100 68.314
107.704 100 67.5006
108.853 100 67.616
109.904 100 67.8566
111.627 100 67.1813
111.477 100 65.9933
113.016 100 65.9934
112.865 100 67.1811
114.588 100 67.8573
115.639 100 67.6155
116.788 100 67.5008
118.605 100 68.3136
119.158 100 69.4091
120.241 100 69.4407
122.671 100 69.6275
124.517 100 70.5359
125.001 100 72.3388
126.071 100 72.602
126.93 100 73.9726
127.021 100 75.1424
129.366 100 75.061
130.259 100 77.2394
130.827 100 78.6802
131.982 100 80.8711
133.986 100 81.449
136.139 100 81.4348
137.2 100 81.0076
138.282 100 80.9906
139.401 100 80.6652
140.423 100 80.4445
141.443 100 80.0978
142.564 100 79.8892
143.635 100 79.2168
144.736 100 79.7374
145.639 100 80.6487
146.58 100 80.0136
77.7506 100 81.0547
78.5584 100 81.8073
79.8766 100 80.9532
80.7848 100 80.2894
81.911 100 81.221
83.1799 100 81.2272
84.2406 100 81.4668
85.4779 100 81.8221
87.0119 100 82.088
88.1479 100 82.4426
89.1286 100 82.2469
91.6267 100 81.5207
92.4847 100 82.2762
94.5633 100 79.6862
95.8514 100 78.1544
96.426 100 76.1747
97.5567 100 76.5799
98.5115 100 74.6263
99.0544 100 73.5648
100.441 100 71.5182
101.038 100 70.4839
102.497 100 70.7036
104.767 100 70.3905
106.629 100 69.1167
107.642 100 68.5805
108.953 100 68.8333
109.843 100 69.5826
111.043 100 68.0862
109.465 100 70.871
110.735 100 70.3994
113.762 100 70.3977
115.025 100 70.8697
113.449 100 68.0861
114.649 100 69.5819
115.54 100 68.8329
116.85 100 68.5808
117.863 100 69.117
119.726 100 70.3905
121.995 100 70.704
123.454 100 70.4839
124.052 100 71.518
125.438 100 73.5648
125.981 100 74.6267
126.936 100 76.5802
128.066 100 76.1746
128.641 100 78.1544
129.929 100 79.6864
132.008 100 82.2763
132.866 100 81.5207
135.364 100 82.2469
136.344 100 82.4426
137.481 100 82.088
139.015 100 81.8221
140.252 100 81.4668
141.313 100 81.2272
142.581 100 81.221
143.708 100 80.2894
144.616 100 80.9532
145.934 100 81.8073
146.742 100 81.0547
77.3715 100 82.2014
78.4574 100 82.9774
79.5916 100 82.1209
80.5521 100 82.7207
80.8802 100 81.3515
81.5427 100 82.4251
83.4918 100 82.2032
84.6252 100 82.636
86.0466 100 82.7139
86.8986 100 83.3452
88.2144 100 83.5716
89.3805 100 83.3766
90.1559 100 82.5068
90.9217 100 83.3743
92.061 100 83.9354
93.5853 100 82.0572
96.695 100 77.3395
98.2932 100 75.8249
99.8997 100 74.8114
100.404 100 73.2824
101.263 100 72.5942
101.67 100 71.4291
103.7 100 70.5021
105.9 100 70.399
107.591 100 69.8701
108.847 100 70.059
107.826 100 71.239
108.678 100 71.8595
109.829 100 71.9326
110.985 100 71.559
113.508 100 71.5553
114.66 100 71.931
115.812 100 71.8582
116.665 100 71.2386
115.646 100 70.0594
116.902 100 69.8712
118.592 100 70.3994
120.792 100 70.502
122.823 100 71.4292
123.23 100 72.5943
124.088 100 73.2827
124.593 100 74.8126
126.199 100 75.8249
127.797 100 77.3395
130.907 100 82.0573
132.431 100 83.9354
133.571 100 83.3744
134.337 100 82.5068
135.112 100 83.3764
136.278 100 83.5716
137.594 100 83.3452
138.446 100 82.7139
139.867 100 82.636
141.001 100 82.2032
142.95 100 82.4251
143.612 100 81.3515
143.94 100 82.7207
144.901 100 82.1209
146.035 100 82.9774
147.121 100 82.2014
77.3996 100 83.4032
78.3796 100 84.127
79.5372 100 83.2277
80.2022 100 84.1442
81.3026 100 83.5684
82.484 100 83.7202
83.6513 100 83.3314
84.4407 100 84.1022
85.7627 100 83.797
86.6186 100 84.4565
87.6671 100 84.5592
88.7489 100 84.4637
89.8654 100 84.5786
91.1616 100 84.5949
93.2338 100 83.7426
94.1997 100 80.9922
96.9576 100 78.4871
97.8922 100 77.6415
99.3876 100 75.9531
100.697 100 75.6342
102.313 100 72.4766
103.163 100 71.7874
[...]
POINT_DATA 1600
SCALARS mass double
LOOKUP_TABLE default
1
1
1
1
1
1
1
1
1
1
1
1
1
1
1
1
1
1
1
1
1
1
1
1
1
1
1
1
1
1
1
1
1
1
1
1
1
1
1
1
1
1
1
1
1
1
1
1
1
1
1
1
1
1
1
1
1
1
1
1
1
1
1
1
1
1
1
1
1
1
1
1
1
1
1
1
1
1
1
1
1
1
1
1
1
1
1
1
1
1
1
1
1
1
1
1
1
1
1
1
1
1
1
1
1
1
1
1
1
1
1
1
1
1
1
1
1
1
1
1
1
1
1
1
1
1
1
1
1
1
1
1
1
1
1
1
1
1
1
1
1
1
1
1
1
1
1
1
1
1
1
1
1
1
1
1
1
1
1
1
1
1
1
1
1
1
1
1
1
1
1
1
1
1
1
1
1
1
1
1
1
1
1
1
1
1
1
1
1
1
1
1
1
1
1
1
1
1
1
1
1
1
1
1
1
1
1
1
1
1
1
1
1
1
1
1
1
1
1
1
1
1
1
1
1
1
1
1
1
1
1
1
1
1
1
1
1
1
1
1
1
1
1
1
1
1
1
1
1
1
1
1
1
1
1
1
1
1
1
1
1
1
1
1
1
1
1
1
1
1
1
1
1
1
1
1
1
1
1
1
1
1
1
1
1
1
1
1
1
1
1
1
1
1
1
1
1
1
1
1
1
1
1
1
1
1
1
1
1
1
1
1
1
1
1
1
1
1
1
1
1
1
1
1
1
1
1
1
1
1
1
1
1
1
1
1
1
1
1
1
1
1
1
1
1
1
1
1
1
1
1
1
1
1
1
1
1
1
1
1
1
1
1
1
1
1
1
1
1
1
1
1
1
1
1
1
1
1
1
1
1
1
1
1
1
1
1
1
1
1
1
1
1
1
1
1
1
1
1
1
1
1
1
1
1
1
1
1
1
1
1
1
1
1
1
1
1
1
1
1
1
1
1
1
1
1
1
1
1
1
1
1
1
1
1
1
1
1
1
1
1
1
1
1
1
1
1
1
1
1
1
1
1
1
1
1
1
1
1
1
1
1
1
1
1
1
1
1
1
1
1
1
1
1
1
1
1
1
1
1
1
1
1
1
1
1
1
1
1
1
1
1
1
1
1
1
1
1
1
1
1
1
1
1
1
1
1
1
1
1
1
1
1
1
1
1
1
1
1
1
1
1
1
1
1
1
1
1
1
1
1
1
1
1
1
1
1
1
1
1
1
1
1
1
1
1
1
1
1
1
1
1
1
1
1
1
1
1
1
1
1
1
1
1
1
1
1
1
1
1
1
1
1
1
1
1
1
1
1
1
1
1
1
1
1
1
1
1
1
1
1
1
1
1
1
1
1
1
1
1
1
1
1
1
1
1
1
1
1
1
1
1
1
1
1
1
1
1
1
1
1
1
1
1
1
1
1
1
1
1
1
1
1
1
1
1
1
1
1
1
1
1
1
1
1
1
1
1
1
1
1
1
1
1
1
1
1
1
1
1
1
1
1
1
1
1
1
1
1
1
1
1
1
1
1
1
1
1
1
1
1
1
1
1
1
1
1
1
1
1
1
1
1
1
1
1
1
1
1
1
1
1
1
1
1
1
1
1
1
1
1
1
1
1
1
1
1
1
1
1
1
1
1
1
1
1
1
1
1
1
1
1
1
1
1
1
1
1
1
1
1
1
1
1
1
1
1
1
1
1
1
1
1
1
1
1
1
1
1
1
1
1
1
1
1
1
1
1
1
1
1
1
1
1
1
1
1
1
1
1
1
1
1
1
1
1
1
1
1
1
1
1
1
1
1
1
1
1
1
1
1
1
1
1
1
1
1
1
1
1
1
1
1
1
1
1
1
1
1
1
1
1
1
1
1
1
1
1
1
1
1
1
1
1
1
1
1
1
1
1
1
1
1
1
1
1
1
1
1
1
1
1
1
1
1
1
1
1
1
1
1
1
1
1
1
1
1
1
1
1
1
1
1
1
1
1
1
1
1
1
1
1
1
1
1
1
1
1
1
1
1
1
1
1
1
1
1
1
1
1
1
1
1
1
1
1
1
1
1
1
1
1
1
1
1
1
1
1
1
1
1
1
1
1
1
1
1
1
1
1
1
1
1
1
1
1
1
1
1
1
1
1
1
1
1
1
1
1
1
1
1
1
1
1
1
1
1
1
1
1
1
1
1
1
1
1
1
1
1
1
1
1
1
1
1
1
1
1
1
1
1
1
1
1
1
1
1
1
1
1
1
1
1
1
1
1
1
1
1
1
1
1
1
1
1
1
1
1
1
1
1
1
1
1
1
1
1
1
1
1
1
1
1
1
1
1
1
1
1
1
1
1
1
1
1
1
1
1
1
1
1
1
1
1
1
1
1
1
1
1
1
1
1
1
1
1
1
1
1
1
1
1
1
1
1
1
1
1
1
1
1
1
1
1
1
1
1
1
1
1
1
1
1
1
1
1
1
1
1
1
1
1
1
1
1
1
1
1
1
1
1
1
1
1
1
1
1
1
1
1
1
1
1
1
1
1
1
1
1
1
1
1
1
1
1
1
1
1
1
1
1
1
1
1
1
1
1
1
1
1
1
1
1
1
1
1
1
1
1
1
1
1
1
1
1
1
1
1
1
1
1
1
1
1
1
1
1
1
1
1
1
1
1
1
1
1
1
1
1
1
1
1
1
1
1
1
1
1
1
1
1
1
1
1
1
1
1
1
1
1
1
1
1
1
1
1
1
1
1
1
1
1
1
1
1
1
1
1
1
1
1
1
1
1
1
1
1
1
1
1
1
1
1
1
1
1
1
1
1
1
1
1
1
1
1
1
1
1
1
1
1
1
1
1
1
1
1
1
1
1
1
1
1
1
1
1
1
1
1
1
1
1
1
1
1
1
1
1
1
1
1
1
1
1
1
1
1
1
1
1
1
1
1
1
1
1
1
1
1
1
1
1
1
1
1
1
1
1
1
1
1
1
1
1
1
1
1
1
1
1
1
1
1
1
1
1
1
1
1
1
1
1
1
1
1
1
1
1
1
1
1
1
1
1
1
1
1
1
1
1
1
1
1
1
1
1
1
1
1
1
1
1
1
1
1
1
1
1
1
1
1
1
1
1
1
1
1
1
1
1
1
1
1
1
1
1
1
1
1
1
1
1
1
1
1
1
1
1
1
1
1
1
1
1
1
1
1
1
1
1
1
1
1
1
1
1
1
1
1
1
1
1
1
1
1
1
1
1
1
1
1
1
1
1
1
1
1
1
1
1
1
1
1
1
1
1
1
1
1
1
1
1
1
1
1
1
1
1
1
1
1
1
1
1
1
1
1
1
1
1
1
1
1
1
1
1
1
1
1
1
1
1
1
1
1
1
1
1
1
1
1
1
1
1
1
1
1
1
1
1
1
1
1
1
1
1
1
1
1
1
1
1
1
1
1
1
1
1
1
1
1
1
1
1
1
1
1
1
1
1
1
1
1
1
1
1
1
1
1
1
1
1
1
1
1
1
1
1
1
1
1
1
1
1
1
1
1
1
1
1
1
1
1
1
1
1
1
1
1
1
1
1
1
1
1
1
1
1
1
1
1
1
1
1
1
1
1
1
1
1
1
1
1
1
1
1
1
1
1
1
VECTORS force double
10.2958 0 12.7609
-15.1464 0 17.9551
-4.45324 0 2.1564
-9.23931 0 8.18181
28.3324 0 1.49778
-69.015 0 -90.4152
-8.71414 0 -1.17127
2.88138 0 -5.25676
-16.9983 0 -15.3767
-10.4599 0 13.5107
-14.7957 0 3.25342
22.3901 0 -18.1364
-30.3072 0 18.1324
-8.5246 0 -3.12688
15.574 0 9.27585
1.11413 0 0.355478
9.38268 0 9.19993
11.9665 0 13.1461
0 0 0
-112.619 0 -95.6557
2.59566 0 18.4434
4.37231 0 -15.1325
15.4332 0 4.3347
1.80425 0 -1.2729
-1.16071 0 6.01824
-88.3499 0 -47.4345
15.0812 0 42.9133
8.6919 0 -28.3227
-11.8584 0 20.2293
10.9567 0 3.88695
-10.9602 0 3.88157
11.8604 0 20.2347
-8.69182 0 -28.3064
-15.079 0 42.8977
88.3817 0 -47.4534
1.16086 0 6.0182
-1.80406 0 -1.27278
-15.4316 0 4.33391
-4.37228 0 -15.1325
-2.59589 0 18.4435
112.71 0 -95.757
0 0 0
-11.9545 0 13.1386
-9.38219 0 9.20018
-1.11399 0 0.355538
-15.5716 0 9.27567
8.51444 0 -3.12361
30.289 0 18.1285
-22.3918 0 -18.1364
14.7981 0 3.2541
10.4597 0 13.5104
16.9985 0 -15.3791
-2.88167 0 -5.25618
8.71421 0 -1.17047
69.0154 0 -90.4156
-28.3324 0 1.49771
9.23938 0 8.18175
4.45326 0 2.15645
15.1464 0 17.9551
-10.2958 0 12.7609
18.0039 0 -4.59965
4.8262 0 -53.1876
-13.7392 0 -28.0529
-13.7746 0 -16.5475
7.64291 0 8.5992
74.3448 0 89.0789
-0.233066 0 23.0485
12.8928 0 30.8501
9.16159 0 -0.540486
0.232568 0 7.44644
-6.97194 0 -0.770848
3.39232 0 -5.0646
47.3115 0 -10.8761
-2.41915 0 13.3773
-7.19463 0 5.99732
-2.46686 0 9.06651
-18.0382 0 -9.46203
-1.96903 0 24.6499
58.9827 0 -11.2881
-1.00082 0 -3.12228
-6.5327 0 -11.5431
0 0 0
-20.3816 0 1.19153
3.1865 0 -16.6016
4.04376 0 8.0251
0.172134 0 -20.4116
85.415 0 48.8154
12.7875 0 14.2579
-7.24763 0 -39.1723
-19.0157 0 -7.30336
19.0171 0 -7.3166
7.24575 0 -39.1638
-12.7871 0 14.2582
-85.4471 0 48.8337
-0.171603 0 -20.4113
-4.04311 0 8.02477
-3.1899 0 -16.6058
20.2693 0 1.30616
0 0 0
6.53107 0 -11.5423
1.03344 0 -3.15101
-58.9636 0 -11.2827
1.96635 0 24.6474
18.0455 0 -9.4625
2.47437 0 9.05618
7.19209 0 5.9976
2.43772 0 13.3853
-47.2928 0 -10.879
-3.39258 0 -5.0632
6.97183 0 -0.770774
-0.232979 0 7.44551
-9.16165 0 -0.536767
-12.893 0 30.8498
0.233721 0 23.0474
-74.3454 0 89.0792
-7.64288 0 8.59944
13.7747 0 -16.5474
13.7393 0 -28.0533
-4.82622 0 -53.1875
-18.0039 0 -4.59965
-10.9384 0 6.85486
2.37248 0 32.0831
22.0029 0 17.8048
-47.469 0 22.1329
38.6191 0 34.5287
-16.22 0 17.3354
13.0285 0 -8.49735
-60.5949 0 -86.2836
43.6142 0 20.6005
4.97477 0 -6.15827
-14.2754 0 -10.957
9.37909 0 4.72457
-0.338257 0 11.6954
-17.2887 0 -0.940609
-13.1077 0 41.5778
29.18 0 -32.8896
18.8406 0 -4.77487
22.7042 0 14.6797
-70.5915 0 15.3548
106.194 0 45.2309
7.45822 0 -21.7083
20.2158 0 0.504739
18.7009 0 -3.54779
31.8169 0 -16.4207
0.768905 0 2.11461
-35.2503 0 -16.1738
-46.1059 0 6.81426
13.1681 0 13.5012
-30.7167 0 -35.5625
-19.3285 0 6.04619
19.3282 0 6.06532
30.724 0 -35.5729
-13.1719 0 13.4976
45.5269 0 6.99875
35.485 0 -16.1286
-0.767769 0 2.11157
-31.7497 0 -16.4587
-18.6159 0 -3.67085
-20.2083 0 0.499515
-7.47068 0 -21.7156
-106.265 0 45.3224
70.5611 0 15.3617
-22.7113 0 14.684
-18.8427 0 -4.78151
-29.2238 0 -32.8949
13.1081 0 41.5912
17.2906 0 -0.939685
0.337605 0 11.6954
-9.37682 0 4.72757
14.275 0 -10.9558
-4.97339 0 -6.15786
-43.6146 0 20.6002
60.5956 0 -86.2835
-13.0289 0 -8.49625
16.2202 0 17.3356
-38.6191 0 34.5287
47.4688 0 22.1333
-22.0029 0 17.8047
-2.37238 0 32.083
10.9384 0 6.85485
15.0928 0 -33.1965
2.50239 0 -7.10626
-16.5922 0 -78.6103
-61.4068 0 -38.2172
12.6663 0 14.1543
-66.5829 0 -33.5527
48.6662 0 3.6728
17.1163 0 64.3226
-1.74995 0 -12.3818
29.8704 0 -53.4814
-7.70406 0 13.3003
-19.5748 0 -16.2639
-37.0095 0 9.87759
4.25606 0 -13.3674
11.0963 0 4.58256
-31.176 0 23.5971
0.979306 0 14.9344
12.1122 0 -22.1657
-37.3686 0 18.5016
31.7455 0 -20.4489
-32.2228 0 75.9871
-0.278213 0 50.7295
-22.8301 0 24.0162
11.802 0 -11.6698
4.3262 0 10.3829
-14.9114 0 5.73803
20.27 0 106.38
-9.49055 0 -2.47069
26.7324 0 25.9769
30.2524 0 50.7376
-30.2576 0 50.7401
-26.1604 0 25.7695
9.53059 0 -2.45378
-20.4095 0 106.372
14.9199 0 5.71882
-4.34957 0 10.4125
-11.7802 0 -11.6539
22.7886 0 24.0006
0.234308 0 50.7466
31.9742 0 75.9654
-31.7192 0 -20.4393
37.3478 0 18.4859
-12.0939 0 -22.2212
-0.954949 0 15.0175
31.1416 0 23.5535
-11.1164 0 4.58722
-4.25634 0 -13.3692
37.014 0 9.8737
19.5811 0 -16.2705
7.70441 0 13.2968
-29.8713 0 -53.4812
1.74958 0 -12.3816
-17.117 0 64.3223
-48.6661 0 3.6703
66.5824 0 -33.5517
-12.6662 0 14.1543
61.4067 0 -38.2171
16.5922 0 -78.6098
-2.50239 0 -7.10655
-15.0929 0 -33.1963
19.1828 0 40.9844
43.6829 0 -27.2439
1.10101 0 10.314
102.197 0 30.4918
2.13925 0 -7.5848
-36.0587 0 15.2275
28.6406 0 34.4183
-8.21482 0 11.2359
-68.5343 0 39.0056
5.98852 0 -20.6033
4.74978 0 25.261
33.0149 0 31.5134
29.2276 0 -20.3426
-2.69137 0 8.64353
-1.78741 0 0.453708
4.03393 0 -4.2367
25.5469 0 -2.03723
-7.56155 0 -13.3292
-0.0377713 0 -7.33052
1.07953 0 5.64905
71.4922 0 -122.769
1.09498 0 19.3928
-12.5558 0 -10.0888
10.3977 0 -5.61555
-10.725 0 -6.81968
-35.0104 0 3.09609
30.7145 0 8.36997
-2.01899 0 -4.55938
33.2427 0 -74.6069
5.98973 0 -0.952712
-5.98974 0 -0.952466
-33.5111 0 -74.6108
1.85553 0 -4.60926
-30.4202 0 8.36931
34.6381 0 3.06854
10.8862 0 -6.80314
-9.9162 0 -5.44631
12.1155 0 -10.2008
-1.10331 0 19.3931
-71.1808 0 -122.389
-1.09485 0 5.63197
0.0361752 0 -7.3143
7.56273 0 -13.3315
-25.5053 0 -2.02465
-4.04558 0 -4.23316
1.78593 0 0.456541
2.69206 0 8.63486
-29.2299 0 -20.3441
-33.0249 0 31.523
-4.73493 0 25.2611
-5.9854 0 -20.6063
68.5344 0 39.0031
8.21465 0 11.2358
-28.6405 0 34.4202
36.059 0 15.2262
-2.13927 0 -7.58491
-102.197 0 30.492
-1.10124 0 10.314
-43.6831 0 -27.2437
-19.1829 0 40.9843
-32.2701 0 -13.0898
-30.0644 0 -12.4586
6.53604 0 60.3746
-19.3778 0 0.751413
-10.629 0 -5.87235
-14.8459 0 -10.9976
-37.8963 0 -68.4242
52.7564 0 19.1982
-15.0961 0 -5.61903
18.3317 0 5.19138
9.21364 0 -78.1888
14.7341 0 -7.14042
0.712208 0 -0.930597
-3.36757 0 4.65494
3.8933 0 -6.09759
3.34978 0 -16.5253
-28.09 0 -21.2849
-1.41359 0 6.46211
-11.0777 0 -4.65655
16.0778 0 -3.31121
-78.107 0 102.152
0.0229072 0 6.89964
-40.4701 0 -3.61591
32.1244 0 -5.73102
-10.1641 0 -1.7659
8.68219 0 -31.643
-26.03 0 -11.8423
15.5145 0 10.5002
25.6194 0 -27.0571
-1.34346 0 19.5298
1.34849 0 19.5309
-25.5399 0 -27.1233
-15.2245 0 10.5535
25.9115 0 -11.8405
-8.71834 0 -31.6206
10.1286 0 -1.76088
-32.2133 0 -5.5721
40.4031 0 -3.48544
-0.0286475 0 6.87909
77.9905 0 101.735
-16.0546 0 -3.31519
11.0755 0 -4.685
1.40648 0 6.45283
27.9381 0 -21.1265
-3.33892 0 -16.5212
-3.8912 0 -6.09828
3.37409 0 4.64598
-0.712762 0 -0.931824
-14.7698 0 -7.14176
-9.21759 0 -78.1873
-18.3331 0 5.1931
15.0964 0 -5.61988
-52.7607 0 19.1989
37.9024 0 -68.4264
14.8442 0 -10.9967
10.6289 0 -5.87232
19.3775 0 0.750864
-6.5357 0 60.3743
30.0634 0 -12.4582
32.2702 0 -13.09
-3.24648 0 41.1641
-17.5707 0 0.695155
1.99505 0 1.74725
2.87259 0 -10.9461
59.9921 0 -11.8333
-40.5563 0 -84.5171
73.5481 0 37.5302
-39.3343 0 -32.716
-0.783891 0 9.77023
-141.479 0 91.5966
89.2065 0 -28.5974
-7.29143 0 5.15052
-3.58449 0 -6.1383
-6.92965 0 3.86247
12.1941 0 -5.22217
14.1723 0 0.50841
-31.2435 0 20.2042
0.690654 0 5.89591
2.46136 0 -2.37468
15.5601 0 18.194
29.164 0 -3.43417
17.0118 0 -15.6365
34.8656 0 24.3203
8.84029 0 20.0137
6.54311 0 29.6351
-1.90803 0 -3.03852
5.50025 0 6.18211
-24.1267 0 4.30188
52.5518 0 62.3699
-17.7442 0 6.9602
17.8028 0 7.02915
-52.4141 0 61.3611
24.0695 0 4.37952
-4.95423 0 6.31336
1.87787 0 -3.01448
-6.54606 0 29.5715
-8.78164 0 19.9897
-34.8341 0 24.1813
-17.0087 0 -15.605
-29.0395 0 -3.43397
-15.5908 0 18.2913
-2.44653 0 -2.34685
-0.7058 0 5.88866
31.1847 0 20.001
-14.1741 0 0.500079
-12.204 0 -5.22427
6.97193 0 3.82612
3.61119 0 -6.12798
7.30604 0 5.14869
-89.1385 0 -28.6342
141.458 0 91.589
0.781496 0 9.77091
39.3346 0 -32.7137
-73.5483 0 37.5318
40.558 0 -84.5211
-59.9928 0 -11.833
-2.87299 0 -10.9468
-1.9936 0 1.74706
17.5699 0 0.695604
3.24699 0 41.1638
24.933 0 2.62929
-9.75201 0 -12.4753
20.801 0 -9.74839
-61.77 0 16.1092
-34.7845 0 59.6176
55.8847 0 -27.986
2.55745 0 106.849
-7.22467 0 -8.20118
-8.7516 0 4.08163
33.0863 0 21.8273
-27.8435 0 -51.7135
-6.7866 0 6.26114
28.4861 0 17.1907
1.56723 0 12.6663
3.55536 0 -3.78343
-6.35711 0 -7.31623
10.6498 0 3.89299
37.3061 0 -29.7674
-11.6602 0 7.39299
-23.3703 0 0.250219
-31.7068 0 -21.4027
-13.357 0 23.1979
-40.684 0 -10.0164
0.5907 0 -11.4088
4.45683 0 -8.49196
-67.8638 0 -70.4142
-34.3966 0 -22.242
40.4227 0 30.7982
6.45851 0 11.2736
-19.7743 0 3.90737
19.7192 0 3.9959
-5.99455 0 11.3697
-40.9071 0 31.146
35.2332 0 -22.5007
67.1212 0 -69.7096
-4.47598 0 -8.45316
-0.477694 0 -11.5396
40.6831 0 -9.97011
13.3365 0 23.1849
31.6912 0 -21.4357
23.4188 0 0.299253
11.7925 0 7.28487
-36.8228 0 -29.8864
-10.6436 0 3.89979
6.45144 0 -7.3286
-3.54184 0 -3.77592
-1.56899 0 12.6649
-28.5221 0 17.1999
6.79216 0 6.28733
27.8715 0 -51.7549
-33.0865 0 21.8267
8.75289 0 4.07879
7.22456 0 -8.20143
-2.55877 0 106.852
-55.8828 0 -27.9855
34.7849 0 59.6183
61.7699 0 16.1087
-20.8014 0 -9.74794
9.75262 0 -12.4753
-24.9331 0 2.62918
14.0861 0 -2.37411
-26.5424 0 -58.9916
3.64899 0 8.7747
9.04983 0 -9.26487
-2.62665 0 0.122338
-37.1053 0 -47.8905
-11.5635 0 -1.6826
3.56869 0 0.398465
-14.1761 0 -13.7754
-26.4233 0 9.4074
37.5771 0 -12.0823
46.4319 0 50.8466
11.2846 0 1.61734
-19.5149 0 -5.86765
-7.12239 0 3.22997
9.40778 0 7.09023
-16.737 0 -29.5402
-45.9488 0 5.39131
23.2825 0 -12.6992
-41.3152 0 -45.3606
31.0209 0 -5.92217
4.57729 0 -27.5568
5.66176 0 0.0164436
-21.8388 0 -4.93615
47.9401 0 -67.7522
27.0629 0 3.76368
11.6797 0 -13.7745
54.2066 0 -49.2138
-8.70819 0 -10.3009
-16.4369 0 -1.69707
16.3346 0 -1.62487
9.24236 0 -10.732
-54.7814 0 -49.5338
-11.7232 0 -13.9386
-27.8793 0 3.74851
-46.8994 0 -67.5032
22.3395 0 -5.07955
-5.64189 0 -0.0025651
-4.45839 0 -27.5091
-31.1596 0 -6.04833
41.1928 0 -44.9935
-23.2175 0 -12.4127
45.8634 0 5.47312
16.7764 0 -29.5661
-9.404 0 7.0835
7.12204 0 3.22493
19.5115 0 -5.88575
-11.3111 0 1.58739
-46.499 0 50.8862
-37.4525 0 -12.0568
26.3817 0 9.39575
14.1575 0 -13.7604
-3.5685 0 0.397888
11.5634 0 -1.68244
37.1058 0 -47.8912
2.62644 0 0.12184
-9.04995 0 -9.26469
-3.65053 0 8.77476
26.5423 0 -58.9912
-14.0862 0 -2.3742
21.0664 0 2.37619
-13.4528 0 8.01276
35.7338 0 43.8933
44.4549 0 -20.9161
-7.62934 0 3.94893
54.3805 0 33.9358
9.29245 0 -18.8833
-7.90059 0 -26.838
18.2186 0 9.55762
14.5876 0 -0.60677
-26.0312 0 25.9567
14.5485 0 -0.527323
-67.051 0 7.92266
58.4213 0 -3.59393
18.832 0 -28.7299
21.9554 0 3.67459
-14.524 0 6.53502
-6.88558 0 14.4902
-12.092 0 -0.496232
38.486 0 31.7278
-28.3234 0 17.035
1.75503 0 -14.8498
-6.53189 0 9.21918
-8.97387 0 57.4117
-1.81102 0 7.09251
10.0787 0 -8.92673
-27.2587 0 -34.6117
-62.3565 0 10.3229
77.0173 0 -49.6862
-7.12212 0 7.06733
7.18379 0 7.16478
-79.4755 0 -50.5523
64.0154 0 8.08612
27.2176 0 -34.0635
-10.0287 0 -9.09723
1.81426 0 7.07731
8.97759 0 57.4028
6.48082 0 9.15699
-1.80835 0 -14.8251
28.1761 0 16.8057
-38.426 0 31.6543
11.8162 0 -0.633583
6.83901 0 14.5376
14.5405 0 6.53582
-22.0939 0 3.68973
-18.8817 0 -28.6731
-58.3798 0 -3.5904
67.0504 0 7.94587
-14.5363 0 -0.527655
26.0052 0 25.9368
-14.5889 0 -0.606163
-18.2191 0 9.55691
7.89849 0 -26.835
-9.29184 0 -18.8832
-54.3811 0 33.9364
7.6298 0 3.94846
-44.4556 0 -20.9162
-35.7338 0 43.8932
13.4527 0 8.01258
-21.0664 0 2.37633
-35.2678 0 -0.706003
7.98549 0 -20.7857
-5.02652 0 -0.668591
-42.6641 0 28.8563
-16.2393 0 7.93959
12.7176 0 17.3275
-2.56799 0 20.7692
-1.33125 0 31.3008
31.83 0 -16.1001
-7.40731 0 3.61946
9.01462 0 -4.4019
-6.04027 0 -5.03928
-67.4517 0 7.13987
46.8324 0 12.9388
20.0336 0 -2.42327
-8.46055 0 4.71295
7.24887 0 -11.6774
3.10469 0 13.0288
-15.2145 0 -1.65202
31.4955 0 1.96277
7.44292 0 3.41044
-14.3828 0 15.4383
37.9519 0 47.622
-30.0184 0 6.73136
-1.57537 0 -6.8942
-42.1649 0 19.3675
26.7364 0 -14.5351
-4.97535 0 -25.2041
-31.3018 0 85.1768
-5.54562 0 -9.4357
5.31524 0 -9.4276
34.9276 0 85.3551
2.12561 0 -21.3559
-27.5128 0 -14.7678
42.617 0 19.6809
1.54 0 -7.04977
29.0568 0 6.7968
-37.9014 0 47.5823
14.5123 0 15.4326
-7.43722 0 3.38794
-31.5273 0 1.99628
15.2011 0 -1.66333
-3.10144 0 13.0463
-7.24752 0 -11.6762
8.46033 0 4.71613
-20.0243 0 -2.48182
-46.9334 0 12.9302
67.5414 0 7.14918
6.04359 0 -5.03835
-9.01447 0 -4.40263
7.40637 0 3.62151
-31.8263 0 -16.1004
1.33348 0 31.2967
2.56976 0 20.7681
-12.7155 0 17.3279
16.2373 0 7.9398
42.665 0 28.8563
5.02913 0 -0.669123
-7.9856 0 -20.7865
35.2676 0 -0.705918
2.6435 0 5.91953
4.34713 0 14.1717
-17.7446 0 1.32137
1.20451 0 -21.6528
8.37979 0 -5.94687
-30.5375 0 -18.9992
0.495213 0 -8.7017
-35.6755 0 25.8038
24.9297 0 0.102908
13.2142 0 -2.07523
-3.37126 0 -1.5707
6.62506 0 -90.013
3.42154 0 10.2621
5.15439 0 -7.21247
0.645452 0 -19.3075
6.61989 0 11.5827
-7.6306 0 2.25764
1.34951 0 -15.3243
-5.29062 0 -13.826
17.9386 0 42.9576
-1.52598 0 -48.5372
-86.7519 0 -46.8077
37.7643 0 -10.8496
44.0812 0 62.5301
-17.8842 0 -60.3227
-0.593118 0 -3.96855
-21.7771 0 3.78175
1.64904 0 -11.4438
15.4463 0 56.4142
9.64632 0 6.25822
-9.29247 0 6.2994
-14.9068 0 56.8299
-1.66646 0 -11.4208
21.7026 0 3.89037
0.593431 0 -4.00671
17.5953 0 -60.101
-43.833 0 62.3218
-37.7637 0 -10.8733
86.9171 0 -47.0803
1.58588 0 -48.6357
-17.8245 0 43.1077
5.12316 0 -13.839
-1.34772 0 -15.3229
7.64707 0 2.2884
-6.62442 0 11.5608
-0.637589 0 -19.279
-5.19394 0 -7.22616
-3.41058 0 10.2571
-6.63445 0 -90.0085
3.36991 0 -1.57244
-13.2135 0 -2.07427
-24.931 0 0.103238
35.6716 0 25.8036
-0.495614 0 -8.70118
30.5382 0 -18.9996
-8.38343 0 -5.94703
-1.20058 0 -21.649
17.7413 0 1.31832
-4.34762 0 14.1716
-2.64339 0 5.91978
6.58209 0 -19.6423
52.7903 0 26.4621
-8.61465 0 -13.628
25.4543 0 -7.88025
12.6223 0 2.09112
19.6897 0 -5.64616
-17.8916 0 -16.0095
11.3268 0 -8.02309
-25.7712 0 34.6303
-1.10979 0 1.32418
-4.8504 0 -0.264695
-8.46321 0 80.315
-0.452913 0 -18.5984
0.447599 0 10.981
11.0362 0 13.7517
-7.93213 0 -13.619
-6.04515 0 -14.6773
-18.6101 0 12.7888
20.4302 0 -10.6782
-50.5084 0 8.33336
14.5887 0 -41.3646
-0.126286 0 -17.9695
34.7703 0 23.5025
-10.6972 0 -17.3244
-13.9408 0 4.52686
1.1328 0 8.09529
37.25 0 1.04194
3.30774 0 -8.46822
-13.4745 0 3.55001
-15.3183 0 0.287538
15.1737 0 -0.16989
13.1968 0 2.36885
-3.27616 0 -8.43667
-37.1852 0 1.10251
-1.23901 0 7.86805
14.0107 0 4.41622
10.693 0 -17.3971
-34.9256 0 23.5112
0.200606 0 -18.0226
-14.3855 0 -41.0315
49.5916 0 8.20483
-20.4242 0 -10.6728
18.6102 0 12.7921
6.04635 0 -14.683
7.9337 0 -13.6215
-11.0171 0 13.7244
-0.408829 0 11.0017
0.427635 0 -18.5861
8.46511 0 80.3152
4.85229 0 -0.26605
1.10721 0 1.32397
25.7744 0 34.6298
-11.3254 0 -8.02166
17.8908 0 -16.0083
-19.6897 0 -5.64669
-12.6213 0 2.09108
-25.4542 0 -7.8799
8.61269 0 -13.628
-52.7898 0 26.4621
-6.58224 0 -19.6409
22.3544 0 -0.591072
-33.4324 0 -0.670244
10.4465 0 8.45733
-73.0758 0 9.91865
37.8749 0 -10.9914
10.8859 0 -29.6494
15.5988 0 20.7291
-34.7014 0 16.0071
-45.9708 0 30.1134
69.0415 0 -73.5285
2.54247 0 -23.758
-20.1151 0 -40.9669
-53.2058 0 1.88308
36.2949 0 -25.6907
-3.58937 0 -14.7834
8.1663 0 -15.5453
17.3559 0 -5.0264
-28.233 0 31.6628
0.776462 0 -63.1258
-20.578 0 -27.8873
-19.5019 0 16.4764
10.4126 0 77.1648
-15.3585 0 -23.8324
-7.46211 0 -6.87135
49.0653 0 54.0975
-5.70591 0 -19.5822
-23.1858 0 -1.19378
4.86227 0 8.05804
19.3954 0 -4.26211
-2.40229 0 -24.9013
5.01239 0 -28.5764
-19.4174 0 -4.29317
-4.90817 0 8.05737
23.1779 0 -1.16568
5.7605 0 -19.6467
-49.2458 0 54.4309
7.58315 0 -6.79082
15.2697 0 -23.7654
-10.3967 0 76.9285
19.3608 0 16.4165
20.6132 0 -27.9108
-0.54418 0 -63.2126
28.1219 0 31.4612
-17.3774 0 -5.0633
-8.19959 0 -15.3105
3.607 0 -14.7828
-36.2309 0 -25.7125
53.1147 0 1.79729
20.1698 0 -41.1312
-2.55662 0 -23.7519
-69.0135 0 -73.4925
45.9469 0 30.0927
34.6923 0 16.0012
-15.5979 0 20.729
-10.8862 0 -29.6494
-37.8745 0 -10.9914
73.0764 0 9.91781
-10.4463 0 8.45803
33.4343 0 -0.672104
-22.3545 0 -0.591122
10.8372 0 1.75995
-2.76989 0 10.3897
32.0878 0 -75.7295
-64.7304 0 35.7716
101.603 0 10.4075
-26.3428 0 32.7493
8.34569 0 -3.12476
-2.98055 0 9.73298
37.4273 0 -50.9853
-0.601148 0 45.587
-0.662774 0 17.8516
36.2705 0 -69.4869
9.31557 0 53.6386
-8.59908 0 25.8493
-9.42538 0 9.53064
11.398 0 2.33884
-19.6204 0 6.2223
16.5197 0 15.5468
45.1135 0 43.6638
-14.8932 0 27.7955
49.8056 0 -8.62117
-34.3705 0 15.1438
38.8087 0 12.6298
-4.14949 0 12.3719
1.43911 0 4.53297
-17.9835 0 0.575224
27.617 0 4.80906
-39.894 0 -36.5466
0.225213 0 23.2096
-4.33038 0 3.59219
3.36581 0 4.1308
-2.03216 0 26.7384
40.1639 0 -37.1405
-27.6621 0 4.92524
17.9768 0 0.628857
-1.45618 0 4.5022
4.22094 0 12.4019
-39.0026 0 12.5153
34.317 0 15.1006
-48.7623 0 -8.45382
14.8744 0 27.8678
-45.2365 0 43.9423
-16.4304 0 15.3258
19.588 0 6.23589
-11.3644 0 2.36054
9.35283 0 9.67249
8.64965 0 25.7017
-9.35474 0 53.974