# vtk DataFile Version 3.0
SiWiRVisFile
ASCII
DATASET UNSTRUCTURED_GRID
POINTS 1600 DOUBLE
76.1675 100 71.9517
74.2788 100 71.8956
75.1296 100 72.6155
77.3814 100 72.5769
78.4084 100 72.6654
79.1109 100 73.7068
80.226 100 73.0973
81.2828 100 73.3626
82.2266 100 74.0458
81.8847 100 72.4486
92.9955 100 63.723
91.6871 100 63.7471
92.6719 100 64.8934
90.5589 100 64.2452
82.1311 100 64.7828
89.5617 100 56.7033
91.4882 100 55.9026
90.0939 100 53.662
85.2972 100 45.8964
93.9842 100 50.4818
108.64 100 26.0457
108.243 100 24.1625
107.199 100 24.1409
107.788 100 23.264
106.283 100 25.5183
110.663 100 26.1028
110.622 100 16.6297
114.331 100 16.8076
110.394 100 20.0844
110.691 100 19.0738
111.97 100 18.9456
113.523 100 19.0058
111.224 100 17.9781
114.192 100 18.1157
114.625 100 23.138
117.91 100 26.1259
116.671 100 22.2162
115.947 100 24.9693
115.022 100 25.4253
115.928 100 26.4366
133.549 100 51.6956
139.195 100 45.8965
131.288 100 54.0824
133.558 100 54.9772
135.294 100 53.9186
135.096 100 66.9982
133.856 100 63.9379
134.276 100 66.1609
132.841 100 63.5227
132.919 100 64.7906
141.852 100 72.6151
141.075 100 74.2565
142.188 100 73.6158
143.425 100 73.3205
145.422 100 73.495
146.505 100 73.052
147.503 100 72.6236
149.362 100 72.6508
151.06 100 71.5927
148.432 100 72.0707
73.321 100 72.7003
74.252 100 73.3373
76.1669 100 73.0093
77.1771 100 73.6212
78.1329 100 74.2772
80.226 100 74.2809
81.2681 100 74.5598
82.4645 100 75.2384
83.3607 100 74.6114
84.9123 100 75.1947
86.112 100 74.8444
92.5018 100 62.8625
91.4385 100 64.905
91.2314 100 61.1423
90.849 100 56.8433
91.0061 100 62.3657
92.2385 100 54.8958
91.2699 100 53.5185
92.4129 100 53.786
96.0901 100 51.1934
107.406 100 25.2482
95.4976 100 33.4613
106.85 100 38.5046
108.825 100 23.1475
109.342 100 24.0522
111.491 100 25.1087
112.002 100 23.9807
110.647 100 24.0766
106.089 100 12.6954
111.488 100 19.9087
112.656 100 19.7994
118.887 100 12.7822
113.46 100 21.5377
115.73 100 21.594
115.099 100 24.228
115.752 100 23.3471
114.426 100 20.9886
119.512 100 38.5124
129.012 100 33.4372
116.911 100 25.7097
127.388 100 51.4599
129.358 100 51.6971
132.447 100 51.4748
134.639 100 55.0416
133.577 100 62.5878
134.13 100 56.0058
132.272 100 60.1281
134.096 100 65.1435
131.666 100 63.155
138.64 100 75.3548
139.884 100 74.5904
140.769 100 75.3466
142.112 100 74.7659
143.138 100 74.3321
144.368 100 73.9413
146.515 100 74.1915
147.474 100 73.7136
148.505 100 73.2075
150.307 100 73.1027
151.301 100 72.6468
73.2383 100 73.8409
74.2128 100 74.4223
75.3194 100 73.8061
76.261 100 74.3975
77.1471 100 74.9887
79.1211 100 74.9169
80.4178 100 75.4165
81.3757 100 75.8121
82.6076 100 76.3807
83.5214 100 75.6252
85.8509 100 76.1439
84.9338 100 77.5405
87.5026 100 76.9357
92.3248 100 61.7019
90.3066 100 60.625
92.7585 100 58.593
92.6057 100 55.922
93.2578 100 54.9989
93.6999 100 53.0886
94.9334 100 51.0691
96.743 100 50.2485
104.607 100 38.726
105.776 100 38.1752
106.992 100 39.7587
96.1324 100 35.9512
107.828 100 38.9978
107.44 100 37.1192
106.263 100 37.0952
111.158 100 21.1381
112.491 100 22.2254
112.302 100 20.8912
113.579 100 20.376
122.169 100 38.3066
117.035 100 35.6754
118.454 100 38.2892
121.13 100 38.7496
118.639 100 39.3004
119.646 100 39.6678
120.859 100 39.8475
126.724 100 50.5653
132.499 100 52.7412
130.706 100 53.1283
133.751 100 53.8208
132.592 100 54.4224
132.61 100 57.1834
132.516 100 58.4924
132.238 100 62.255
137.724 100 75.8404
138.752 100 76.3632
139.796 100 75.8301
140.795 100 76.4377
141.775 100 75.9091
143.023 100 75.4761
144.027 100 74.9283
145.354 100 74.6087
147.371 100 74.9389
148.498 100 74.2633
149.509 100 73.8569
150.526 100 74.8101
151.403 100 74.0511
73.0572 100 74.9773
74.2164 100 75.506
75.2561 100 74.8539
76.1744 100 75.5772
78.1742 100 75.3977
79.353 100 76.1267
80.4648 100 76.5115
81.6121 100 76.9326
83.8231 100 76.7984
84.7789 100 76.3542
84.6817 100 78.6114
86.2814 100 77.1155
86.9646 100 76.013
92.2315 100 60.5284
91.2899 100 60.0928
90.6237 100 59.1694
93.0729 100 56.985
92.0682 100 56.8559
93.8638 100 55.8366
94.2511 100 54.6394
94.2675 100 51.9436
97.4764 100 51.0109
104.851 100 37.5082
104.578 100 42.7464
105.838 100 39.4126
106.101 100 40.5151
108.17 100 41.5308
109.942 100 40.9915
108.172 100 37.9009
112.864 100 23.2275
114.452 100 22.0442
113.735 100 34.878
115.177 100 40.7431
116.573 100 39.7366
117.625 100 39.9887
120.014 100 41.1627
118.838 100 40.5511
119.573 100 37.452
126.34 100 51.6252
129.47 100 52.8673
130.202 100 54.0165
132.672 100 55.5268
131.866 100 56.3284
131.544 100 57.3534
131.435 100 58.7722
131.877 100 61.1377
131.104 100 62.3144
137.666 100 74.7152
138.905 100 77.4518
139.939 100 77.6839
140.987 100 77.4906
141.961 100 77.0486
142.959 100 76.6226
144.161 100 76.2217
145.255 100 75.727
146.379 100 75.3945
148.261 100 75.5235
149.29 100 75.0591
150.239 100 75.9202
151.539 100 75.1844
73.1969 100 76.2602
74.308 100 76.7737
75.1713 100 76.089
77.279 100 76.1301
78.323 100 76.6487
79.6168 100 77.1328
80.6486 100 77.6086
81.7062 100 78.0484
82.825 100 77.5126
83.7346 100 78.1642
84.8416 100 80.034
88.137 100 77.843
88.1437 100 75.9435
94.914 100 57.7669
91.7126 100 59.0915
91.5554 100 58.0182
95.2692 100 56.6139
94.8831 100 55.5111
94.8184 100 53.184
95.9733 100 53.5666
95.3899 100 52.083
102.7 100 47.7453
104.554 100 41.5879
107.426 100 42.2468
106.999 100 41.1166
108.448 100 42.6491
109.202 100 41.7814
110.75 100 41.9773
107.927 100 40.4841
110.26 100 25.0995
109.649 100 25.9962
116.157 100 38.6516
113.24 100 40.3719
114.439 100 41.5503
116.767 100 40.9929
117.433 100 38.9109
117.966 100 41.2205
118.052 100 42.4904
123.155 100 47.7603
128.598 100 50.9588
128.305 100 52.1595
129.138 100 54.0582
131.662 100 55.1875
130.718 100 56.3141
129.902 100 57.1089
130.613 100 61.0934
130.845 100 59.8761
137.8 100 77.1982
138.175 100 78.5846
140.012 100 79.8147
140.556 100 78.5982
141.695 100 78.2479
142.875 100 77.7565
144.125 100 77.3534
145.131 100 76.8136
146.224 100 76.5521
147.348 100 76.0615
149.16 100 76.1512
150.068 100 76.939
151.058 100 76.6602
73.3428 100 77.3263
74.3572 100 78.0269
75.3475 100 77.2236
76.2847 100 76.6403
77.2445 100 77.2039
78.6007 100 77.7715
79.686 100 78.2058
80.6753 100 78.7547
81.7425 100 79.1533
82.7292 100 78.5997
83.9324 100 79.4715
85.8214 100 78.1758
87.7337 100 79.036
87.1817 100 74.9138
89.3987 100 75.5537
93.5139 100 57.8631
95.9496 100 57.4508
96.9668 100 57.1308
96.3446 100 56.265
95.407 100 54.4871
96.389 100 52.5678
98.4723 100 51.3763
103.184 100 46.7289
104.393 100 44.9989
105.832 100 42.2035
106.761 100 43.0925
108.136 100 44.8365
109.566 100 42.8475
112.095 100 40.846
110.932 100 40.1438
114.422 100 40.0223
113.409 100 41.8701
115.683 100 41.6979
115.201 100 42.9358
116.913 100 42.0985
118.901 100 41.6856
119.134 100 42.7871
122.471 100 46.844
125.872 100 52.5289
127.271 100 52.459
128.218 100 53.279
130.451 100 55.3201
128.534 100 57.2433
129.439 100 58.0972
130.58 100 58.0323
136.512 100 75.4903
139.844 100 71.0731
137.264 100 79.2362
139.274 100 78.7395
141.534 100 79.3453
142.743 100 78.8452
143.546 100 79.5345
143.84 100 78.3914
145.14 100 78.1051
146.163 100 77.6632
147.206 100 77.1955
148.248 100 76.6324
149.025 100 77.2933
149.91 100 78.1088
150.908 100 77.709
72.3298 100 77.8369
73.3692 100 78.4845
75.3431 100 78.5346
76.3275 100 77.7281
77.4524 100 78.2799
77.4128 100 80.7343
79.8291 100 79.4783
80.8077 100 79.8385
82.0059 100 80.3556
82.8483 100 79.679
86.3277 100 80.1199
87.087 100 78.0908
88.7019 100 79.9382
88.2824 100 74.9118
94.2618 100 58.6231
94.2412 100 56.8778
95.7554 100 58.8159
97.8179 100 57.9115
96.2166 100 55.1718
97.0693 100 54.2008
97.7578 100 52.1844
100.061 100 52.5246
104.297 100 47.0306
105.663 100 43.2481
110.024 100 45.2899
108.688 100 43.8006
105.219 100 47.4892
110.004 100 44.0682
104.932 100 48.6464
106.303 100 47.2564
119.638 100 48.8314
117.111 100 48.3482
115.101 100 44.0596
116.079 100 48.1743
116.764 100 45.2201
116.1 100 43.7093
117.17 100 43.3018
121.608 100 47.4547
123.112 100 49.3536
126.628 100 53.4119
127.378 100 54.2173
129.237 100 55.2051
128.069 100 56.1615
127.853 100 58.2516
130.075 100 59.0756
129.78 100 60.1634
136.537 100 74.3805
130.701 100 78.3373
138.518 100 79.5971
141.393 100 80.4794
142.418 100 80.0351
143.48 100 80.7137
144.64 100 80.0178
145.487 100 79.3602
146.673 100 79.7743
146.848 100 78.7188
148.024 100 77.8351
148.82 100 78.5736
151.205 100 78.7771
152.113 100 77.9641
72.3742 100 78.9743
73.3691 100 79.9238
74.3305 100 79.0895
75.456 100 79.5896
76.4122 100 78.8558
76.443 100 80.1346
77.493 100 79.4951
79.8789 100 80.5306
80.9991 100 80.9326
82.4171 100 81.5537
83.1217 100 80.6988
83.6603 100 81.9132
85.6941 100 79.1913
85.4687 100 81.1999
83.9426 100 82.9874
90.2883 100 79.1739
95.4067 100 60.7254
96.8696 100 58.3007
98.635 100 55.9306
97.9469 100 56.7339
98.4758 100 54.6017
98.074 100 53.5518
103.789 100 48.2349
105.135 100 44.1166
107.479 100 43.9102
108.832 100 45.6767
107.126 100 45.1803
104.286 100 49.6688
105.59 100 49.5705
107.765 100 50.8395
118.182 100 48.648
120.453 100 49.5564
121.018 100 50.5216
118.046 100 45.6161
117.271 100 46.4703
117.683 100 44.6181
118.219 100 43.6076
122.356 100 48.5125
125.552 100 53.8663
128.183 100 55.0324
126.982 100 55.2784
126.051 100 55.9263
126.828 100 57.7038
129.02 100 59.3415
131.008 100 77.0874
140.579 100 82.439
139.982 100 80.9115
138.935 100 80.5953
140.917 100 81.4451
141.774 100 82.1436
142.351 100 81.2259
144.813 100 81.1887
145.783 100 81.6758
145.696 100 80.5519
147.857 100 80.4103
147.817 100 79.2425
148.79 100 79.7263
149.984 100 79.1904
150.937 100 80.1192
152.223 100 79.3812
72.5202 100 80.5242
73.6313 100 81.0374
74.4737 100 80.2822
75.4667 100 80.7887
76.6034 100 82.3862
74.5803 100 83.7719
76.4864 100 81.1503
78.5001 100 81.1227
79.3488 100 81.7318
78.4238 100 82.4246
81.6056 100 82.2817
81.536 100 83.3683
82.7971 100 82.7332
83.1925 100 83.8659
84.9573 100 82.5362
88.8331 100 78.7252
96.6932 100 60.6121
96.8619 100 59.5753
98.9557 100 57.2955
100.628 100 54.9803
[...]
POINT_DATA 1600
SCALARS mass double
LOOKUP_TABLE default
1
1
1
1
1
1
1
1
1
1
1
1
1
1
1
1
1
1
1
1
1
1
1
1
1
1
1
1
1
1
1
1
1
1
1
1
1
1
1
1
1
1
1
1
1
1
1
1
1
1
1
1
1
1
1
1
1
1
1
1
1
1
1
1
1
1
1
1
1
1
1
1
1
1
1
1
1
1
1
1
1
1
1
1
1
1
1
1
1
1
1
1
1
1
1
1
1
1
1
1
1
1
1
1
1
1
1
1
1
1
1
1
1
1
1
1
1
1
1
1
1
1
1
1
1
1
1
1
1
1
1
1
1
1
1
1
1
1
1
1
1
1
1
1
1
1
1
1
1
1
1
1
1
1
1
1
1
1
1
1
1
1
1
1
1
1
1
1
1
1
1
1
1
1
1
1
1
1
1
1
1
1
1
1
1
1
1
1
1
1
1
1
1
1
1
1
1
1
1
1
1
1
1
1
1
1
1
1
1
1
1
1
1
1
1
1
1
1
1
1
1
1
1
1
1
1
1
1
1
1
1
1
1
1
1
1
1
1
1
1
1
1
1
1
1
1
1
1
1
1
1
1
1
1
1
1
1
1
1
1
1
1
1
1
1
1
1
1
1
1
1
1
1
1
1
1
1
1
1
1
1
1
1
1
1
1
1
1
1
1
1
1
1
1
1
1
1
1
1
1
1
1
1
1
1
1
1
1
1
1
1
1
1
1
1
1
1
1
1
1
1
1
1
1
1
1
1
1
1
1
1
1
1
1
1
1
1
1
1
1
1
1
1
1
1
1
1
1
1
1
1
1
1
1
1
1
1
1
1
1
1
1
1
1
1
1
1
1
1
1
1
1
1
1
1
1
1
1
1
1
1
1
1
1
1
1
1
1
1
1
1
1
1
1
1
1
1
1
1
1
1
1
1
1
1
1
1
1
1
1
1
1
1
1
1
1
1
1
1
1
1
1
1
1
1
1
1
1
1
1
1
1
1
1
1
1
1
1
1
1
1
1
1
1
1
1
1
1
1
1
1
1
1
1
1
1
1
1
1
1
1
1
1
1
1
1
1
1
1
1
1
1
1
1
1
1
1
1
1
1
1
1
1
1
1
1
1
1
1
1
1
1
1
1
1
1
1
1
1
1
1
1
1
1
1
1
1
1
1
1
1
1
1
1
1
1
1
1
1
1
1
1
1
1
1
1
1
1
1
1
1
1
1
1
1
1
1
1
1
1
1
1
1
1
1
1
1
1
1
1
1
1
1
1
1
1
1
1
1
1
1
1
1
1
1
1
1
1
1
1
1
1
1
1
1
1
1
1
1
1
1
1
1
1
1
1
1
1
1
1
1
1
1
1
1
1
1
1
1
1
1
1
1
1
1
1
1
1
1
1
1
1
1
1
1
1
1
1
1
1
1
1
1
1
1
1
1
1
1
1
1
1
1
1
1
1
1
1
1
1
1
1
1
1
1
1
1
1
1
1
1
1
1
1
1
1
1
1
1
1
1
1
1
1
1
1
1
1
1
1
1
1
1
1
1
1
1
1
1
1
1
1
1
1
1
1
1
1
1
1
1
1
1
1
1
1
1
1
1
1
1
1
1
1
1
1
1
1
1
1
1
1
1
1
1
1
1
1
1
1
1
1
1
1
1
1
1
1
1
1
1
1
1
1
1
1
1
1
1
1
1
1
1
1
1
1
1
1
1
1
1
1
1
1
1
1
1
1
1
1
1
1
1
1
1
1
1
1
1
1
1
1
1
1
1
1
1
1
1
1
1
1
1
1
1
1
1
1
1
1
1
1
1
1
1
1
1
1
1
1
1
1
1
1
1
1
1
1
1
1
1
1
1
1
1
1
1
1
1
1
1
1
1
1
1
1
1
1
1
1
1
1
1
1
1
1
1
1
1
1
1
1
1
1
1
1
1
1
1
1
1
1
1
1
1
1
1
1
1
1
1
1
1
1
1
1
1
1
1
1
1
1
1
1
1
1
1
1
1
1
1
1
1
1
1
1
1
1
1
1
1
1
1
1
1
1
1
1
1
1
1
1
1
1
1
1
1
1
1
1
1
1
1
1
1
1
1
1
1
1
1
1
1
1
1
1
1
1
1
1
1
1
1
1
1
1
1
1
1
1
1
1
1
1
1
1
1
1
1
1
1
1
1
1
1
1
1
1
1
1
1
1
1
1
1
1
1
1
1
1
1
1
1
1
1
1
1
1
1
1
1
1
1
1
1
1
1
1
1
1
1
1
1
1
1
1
1
1
1
1
1
1
1
1
1
1
1
1
1
1
1
1
1
1
1
1
1
1
1
1
1
1
1
1
1
1
1
1
1
1
1
1
1
1
1
1
1
1
1
1
1
1
1
1
1
1
1
1
1
1
1
1
1
1
1
1
1
1
1
1
1
1
1
1
1
1
1
1
1
1
1
1
1
1
1
1
1
1
1
1
1
1
1
1
1
1
1
1
1
1
1
1
1
1
1
1
1
1
1
1
1
1
1
1
1
1
1
1
1
1
1
1
1
1
1
1
1
1
1
1
1
1
1
1
1
1
1
1
1
1
1
1
1
1
1
1
1
1
1
1
1
1
1
1
1
1
1
1
1
1
1
1
1
1
1
1
1
1
1
1
1
1
1
1
1
1
1
1
1
1
1
1
1
1
1
1
1
1
1
1
1
1
1
1
1
1
1
1
1
1
1
1
1
1
1
1
1
1
1
1
1
1
1
1
1
1
1
1
1
1
1
1
1
1
1
1
1
1
1
1
1
1
1
1
1
1
1
1
1
1
1
1
1
1
1
1
1
1
1
1
1
1
1
1
1
1
1
1
1
1
1
1
1
1
1
1
1
1
1
1
1
1
1
1
1
1
1
1
1
1
1
1
1
1
1
1
1
1
1
1
1
1
1
1
1
1
1
1
1
1
1
1
1
1
1
1
1
1
1
1
1
1
1
1
1
1
1
1
1
1
1
1
1
1
1
1
1
1
1
1
1
1
1
1
1
1
1
1
1
1
1
1
1
1
1
1
1
1
1
1
1
1
1
1
1
1
1
1
1
1
1
1
1
1
1
1
1
1
1
1
1
1
1
1
1
1
1
1
1
1
1
1
1
1
1
1
1
1
1
1
1
1
1
1
1
1
1
1
1
1
1
1
1
1
1
1
1
1
1
1
1
1
1
1
1
1
1
1
1
1
1
1
1
1
1
1
1
1
1
1
1
1
1
1
1
1
1
1
1
1
1
1
1
1
1
1
1
1
1
1
1
1
1
1
1
1
1
1
1
1
1
1
1
1
1
1
1
1
1
1
1
1
1
1
1
1
1
1
1
1
1
1
1
1
1
1
1
1
1
1
1
1
1
1
1
1
1
1
1
1
1
1
1
1
1
1
1
1
1
1
1
1
1
1
1
1
1
1
1
1
1
1
1
1
1
1
1
1
1
1
1
1
1
1
1
1
1
1
1
1
1
1
1
1
1
1
1
1
1
1
1
1
1
1
1
1
1
1
1
1
1
1
1
1
1
1
1
1
1
1
1
1
1
1
1
1
1
1
1
1
1
1
1
1
1
1
1
1
1
1
1
1
1
1
1
1
1
1
1
1
1
1
1
1
1
1
1
1
1
1
VECTORS force double
-2.73429 0 -22.0347
-9.39079 0 14.4584
5.70824 0 9.17939
-77.7531 0 -32.1992
67.9869 0 22.4075
10.7582 0 4.11507
-21.3385 0 14.1937
6.72508 0 34.3329
16.199 0 3.88156
4.37826 0 -4.04731
53.8539 0 132.234
7.10232 0 5.49496
-12.9639 0 -16.2028
5.55496 0 -10.8651
0 0 0
12.1035 0 1.10972
4.18979 0 -7.71036
10.5678 0 -1.10605
0 0 0
0.334535 0 5.50914
-102.263 0 -1.38617
88.4918 0 95.8411
-67.9048 0 32.2942
-72.8463 0 -115.638
8.83256 0 -4.34899
93.5592 0 15.029
2.58507 0 6.00091
-1.25367 0 11.0355
-7.09518 0 46.3042
33.115 0 -43.2479
-11.4122 0 -31.5204
-13.2464 0 18.3174
-0.310826 0 15.7696
2.29387 0 -12.3958
8.63564 0 13.4943
14.8032 0 6.62004
-6.34467 0 4.58938
65.3921 0 -18.9574
-48.9732 0 23.858
3.94395 0 -21.1356
-4.74267 0 4.88639
0 0 0
24.3347 0 17.3959
33.9118 0 -26.6884
-11.3062 0 10.0338
-6.6011 0 -6.99274
0.336216 0 14.5685
16.1047 0 65.7456
-16.7791 0 -10.9195
19.8774 0 -16.4063
-9.75709 0 -31.1705
5.91433 0 4.46885
21.8134 0 52.2393
0.0938565 0 -32.3609
12.8363 0 4.41732
-13.2412 0 20.456
6.44038 0 -2.42767
33.239 0 -43.1255
-5.87733 0 -13.7523
7.10609 0 -7.31319
12.6078 0 -0.469278
9.64993 0 -18.2517
16.6318 0 52.9642
-13.9635 0 42.2065
-6.54761 0 2.71254
-31.2104 0 -11.8557
6.12994 0 24.3421
-29.2206 0 4.161
-11.1922 0 -78.5534
8.36433 0 14.8903
-32.5596 0 19.0811
-83.1133 0 -122.639
21.5451 0 -6.07816
43.0296 0 68.4416
8.79325 0 3.64477
13.8431 0 -9.59665
-84.5794 0 -10.5523
0.944997 0 6.00822
0.968743 0 1.31089
3.58296 0 4.52354
5.03619 0 -4.16518
0 0 0
-9.25934 0 1.42089
17.906 0 -40.7838
45.6018 0 51.382
-21.5068 0 -10.2882
-10.7783 0 6.95694
7.92793 0 -2.27895
0 0 0
5.47389 0 30.5854
-9.86442 0 2.17665
0 0 0
-22.7177 0 -5.75699
-15.8071 0 4.08609
-9.69851 0 9.93091
3.77231 0 -13.4175
45.2518 0 -7.59139
12.5321 0 50.998
0 0 0
-36.1833 0 -7.12236
61.2274 0 -106.887
17.4534 0 36.7689
0.699275 0 12.066
22.7808 0 -24.2005
-14.8668 0 15.1761
-16.8122 0 0.866144
-4.38347 0 -21.1748
-24.5715 0 -75.6478
51.5397 0 105.92
49.4399 0 -118.539
11.1313 0 19.0433
19.2822 0 -24.379
-10.0265 0 8.72019
-28.2729 0 21.194
16.9061 0 -36.9814
-39.2026 0 18.649
25.8712 0 10.5426
-67.1059 0 7.9981
41.2561 0 23.0111
12.4878 0 21.2457
6.46512 0 2.49207
-0.311415 0 -2.61252
-13.0452 0 -57.6584
-7.40221 0 -21.6284
24.5773 0 6.78467
39.4109 0 -20.3614
-63.5641 0 -41.2685
66.8114 0 16.9323
6.4062 0 -4.22566
16.4319 0 89.5019
-5.83664 0 -44.4748
-17.2667 0 -29.4935
2.75142 0 22.1429
-16.5611 0 -3.02608
-26.2167 0 -20.4751
-40.6555 0 24.1371
32.9478 0 0.28574
1.6842 0 -31.2712
1.51936 0 -3.27645
14.4345 0 -6.84353
-27.5768 0 -18.2573
20.5358 0 -12.6768
-6.68812 0 5.72788
-9.28941 0 4.33165
0 0 0
7.73068 0 5.33011
-28.6779 0 -10.724
1.64306 0 17.036
8.04316 0 -22.1206
-2.29161 0 -40.4714
4.66051 0 -2.4201
-36.4839 0 -16.5803
-2.28296 0 1.38191
0 0 0
-31.8629 0 -67.7575
-4.76238 0 1.57725
-21.7665 0 69.0096
25.8802 0 12.5405
-14.9128 0 -1.52747
-0.571305 0 1.10253
3.79629 0 -9.38115
26.3226 0 -71.5924
-6.4332 0 17.4645
-11.6262 0 -8.54895
14.9464 0 1.87714
-3.07794 0 -12.8953
20.2298 0 -23.2158
-55.4324 0 35.4526
3.68032 0 83.1695
-23.5621 0 1.65111
-7.91446 0 -6.22026
16.9492 0 -7.1138
-3.39524 0 1.88217
14.7172 0 72.2399
3.03524 0 2.00321
-4.62253 0 -39.2023
-30.6313 0 53.079
-0.947965 0 1.91728
-32.5456 0 -9.93379
-13.0104 0 -3.17117
24.8711 0 4.81014
-8.61872 0 22.2785
-13.7219 0 66.7662
3.4343 0 -35.622
-20.0051 0 36.923
-10.4855 0 -66.0836
39.3041 0 -19.1223
-8.05289 0 -2.5038
-49.6717 0 22.6415
22.28 0 -13.0134
53.3831 0 36.2329
25.3296 0 33.528
-11.4457 0 -19.1414
40.3134 0 32.3424
-54.0706 0 -54.6798
-5.65207 0 5.78666
27.474 0 -148.222
-114.134 0 18.7936
-0.678439 0 50.6306
26.651 0 -25.0266
-3.64066 0 20.1556
-12.4873 0 27.6451
7.96298 0 13.1343
21.3104 0 -0.0584768
12.1988 0 -16.4646
-7.79689 0 -15.6816
10.8247 0 -26.3452
25.3904 0 -8.79187
7.12269 0 26.2557
8.23903 0 24.9548
10.716 0 30.3776
0 0 0
39.4118 0 10.2402
-11.4545 0 -4.54658
35.1317 0 30.0183
-20.7952 0 -7.17738
11.4535 0 -21.0391
-4.6539 0 -24.2277
17.8701 0 -61.6493
-6.13246 0 11.0981
-29.9215 0 73.8235
-14.2611 0 46.8574
2.31491 0 -30.316
-39.7813 0 32.1771
-15.6635 0 6.54065
-21.5299 0 27.8069
-48.7294 0 -96.7689
-8.09637 0 8.98461
-35.574 0 17.008
-4.11834 0 10.8031
-30.6901 0 -3.72446
1.33627 0 -0.0355686
25.2899 0 -11.5211
-6.92224 0 -12.4784
3.66418 0 -5.08219
-19.5574 0 3.82084
46.7916 0 -22.4711
20.1591 0 -12.6911
7.72486 0 -80.6214
8.99129 0 9.12481
17.3705 0 -32.2836
-10.2312 0 -0.0567342
19.6947 0 -5.6232
3.05604 0 -33.8975
-3.80444 0 -3.5664
-33.5012 0 57.5186
8.45696 0 5.13794
2.544 0 -2.03519
-10.8289 0 -24.502
-20.8787 0 -24.2365
37.4856 0 7.77099
23.7696 0 2.85758
-10.6796 0 60.4231
-0.211772 0 -13.6707
27.8211 0 3.1813
5.33042 0 -26.0243
13.5022 0 -23.5471
47.901 0 15.4581
16.8781 0 -5.68664
0.517025 0 2.74561
-7.31555 0 13.4127
13.4409 0 5.11859
9.0341 0 10.7735
-46.3494 0 15.1511
27.3395 0 18.1565
11.4082 0 5.57388
16.5296 0 25.7941
-15.8188 0 -8.25255
-13.9349 0 -30.2395
3.21232 0 -24.9746
9.48916 0 -3.00273
14.3247 0 11.011
3.72077 0 8.96565
22.7049 0 0.125989
4.52706 0 -13.5798
1.25744 0 -5.87605
-70.1194 0 -12.7494
-12.7773 0 -11.7517
-1.42109 0 -6.34226
-38.3067 0 -5.60132
29.1359 0 -17.8867
-39.5176 0 -4.87558
-35.086 0 -11.0335
30.1275 0 72.1382
5.13962 0 -9.0319
11.7674 0 -11.0953
20.0697 0 3.84619
-4.28546 0 -0.367507
-16.9977 0 -43.8748
-6.51627 0 -21.2237
11.9022 0 10.5154
51.8176 0 29.6591
0.417502 0 -12.0245
1.50753 0 -19.4327
0.22788 0 27.6952
10.9027 0 -18.7679
-69.5351 0 6.17212
64.0887 0 -1.90496
-76.4682 0 81.6892
74.2358 0 -48.6597
8.91026 0 38.3269
8.4198 0 -63.1322
-22.9544 0 11.0168
-6.83601 0 2.0325
45.2765 0 -7.38407
-0.0723085 0 -8.48242
0.556601 0 27.738
12.8905 0 -25.6597
4.57357 0 23.7939
-16.3995 0 2.14649
-20.9399 0 -27.2203
22.6184 0 -71.3582
9.953 0 -9.50612
20.0856 0 9.24429
-23.2676 0 7.53218
97.7817 0 87.1136
11.966 0 23.3936
13.1233 0 41.0349
-21.5817 0 -3.25816
-46.247 0 -5.63293
14.9535 0 -22.3339
44.9533 0 7.45445
10.1567 0 4.76581
17.0696 0 -0.682154
5.86088 0 -28.9861
-28.5335 0 8.3409
21.1558 0 -30.2658
-3.57504 0 11.7459
3.49632 0 -6.23501
-0.259071 0 13.9674
-46.2747 0 -24.6951
-19.4075 0 -2.41801
13.3288 0 21.5987
10.8833 0 -6.61266
9.35237 0 9.79532
46.1177 0 20.2457
-10.1877 0 4.8012
30.8953 0 -13.0523
-25.8947 0 89.5538
-42.4889 0 118.078
-1.25427 0 6.26174
-15.2209 0 -80.9324
6.43744 0 9.04839
-10.9577 0 20.8717
-0.609123 0 -2.11283
19.6878 0 5.20451
0 0 0
30.6223 0 26.4435
21.6476 0 -7.01302
-3.91388 0 -1.95956
-41.0875 0 -7.35057
26.8952 0 31.3267
-12.2917 0 27.9345
-17.4588 0 -4.33813
5.9738 0 4.01089
-45.4687 0 -43.6323
-104.49 0 11.8235
58.6257 0 67.3685
-32.2514 0 -19.0134
19.6146 0 21.2501
15.3604 0 7.46109
-13.3135 0 -1.35453
1.55036 0 -44.7153
-23.1926 0 48.1946
-7.29491 0 14.3145
83.3708 0 -37.9475
-50.2834 0 -65.2061
58.8786 0 27.6812
-21.5905 0 11.5963
-10.426 0 -37.2495
-9.78798 0 8.75891
-31.4122 0 -9.83884
0.136 0 -13.0556
22.133 0 -43.0032
7.23443 0 33.1597
-43.9483 0 17.5258
9.51131 0 -16.0796
84.3347 0 -29.8789
20.4968 0 6.15456
-5.06416 0 -3.10023
-16.326 0 16.2632
-14.3166 0 5.13824
-74.1567 0 -9.8394
29.1955 0 -40.5765
-13.2834 0 -9.21553
-1.52737 0 -5.78293
55.0588 0 45.7397
-15.1861 0 -0.823424
-4.7852 0 -5.86755
0.966108 0 3.28419
-15.7564 0 2.60485
42.4201 0 5.68861
-30.7225 0 9.7498
-43.9794 0 -8.01757
5.29186 0 11.9162
33.5241 0 -18.5139
-7.01029 0 -12.8105
-32.1872 0 41.5398
-13.6814 0 -4.83205
-11.8931 0 -11.3528
13.4505 0 2.85666
36.7626 0 -0.307298
0.758452 0 -2.27032
4.68655 0 -12.6609
17.3198 0 -21.2369
3.07773 0 8.65717
10.4057 0 -0.0596631
-12.5354 0 -14.0407
-0.81336 0 1.70796
8.06316 0 -13.6293
24.846 0 0.184666
-15.7702 0 -39.2062
-26.5381 0 28.8081
32.398 0 -12.4598
-4.58808 0 39.8008
-8.00252 0 -43.138
32.3367 0 20.6564
21.0184 0 12.1754
-0.606392 0 12.4002
-22.717 0 10.9779
5.33776 0 8.06364
56.0412 0 -44.4661
5.35504 0 48.3905
-5.89687 0 38.1993
11.3952 0 16.4248
-0.53616 0 -97.4401
-22.4674 0 1.24109
8.97301 0 48.6862
3.34995 0 1.94056
12.7359 0 -3.31767
12.1394 0 32.7698
-16.9318 0 -6.26359
-24.9298 0 76.3844
-40.7308 0 -28.2112
-9.28378 0 20.5733
-11.1507 0 -40.1637
17.9749 0 1.6693
-80.4102 0 29.9104
28.3903 0 -27.3864
12.0233 0 26.8654
-28.2229 0 28.5426
2.6324 0 -3.0163
4.95482 0 0.684636
-43.79 0 81.2331
9.0774 0 18.7033
17.3007 0 2.5328
-36.3532 0 -10.6112
72.5941 0 -24.4521
-2.04336 0 1.94734
-7.9219 0 -87.104
14.3906 0 11.4397
37.9963 0 -17.6277
28.3348 0 -31.1252
-10.5059 0 35.5138
0.940049 0 -13.4217
8.43051 0 -44.393
-28.8174 0 -11.549
-10.3504 0 -30.4856
46.6131 0 -67.9364
-35.334 0 -11.4161
16.6939 0 0.747681
6.01401 0 48.5282
-5.3795 0 3.46251
-23.1218 0 -10.6733
-11.3166 0 4.75163
112.235 0 31.3906
-1.37541 0 4.85566
4.69547 0 6.57255
23.7569 0 -15.1826
-29.4454 0 36.3578
-15.1628 0 -76.0274
-36.798 0 -5.21755
58.7379 0 -28.7576
13.2698 0 -25.9803
-11.4281 0 3.09919
-6.07516 0 -2.49196
27.4752 0 16.3767
-0.05685 0 25.5923
25.2894 0 -42.8751
-15.736 0 -9.59178
-30.7932 0 31.2784
-22.4171 0 -21.7497
-2.11126 0 -8.96531
-13.8606 0 -1.16108
-32.6965 0 55.4083
15.6206 0 7.89145
-58.504 0 153.653
-51.6011 0 -15.0433
37.4843 0 23.7329
25.5267 0 16.431
-1.08561 0 -4.18102
-27.8791 0 -19.4829
-2.54039 0 -3.00132
-18.4432 0 -47.8276
4.58668 0 0.554445
-0.353191 0 10.9916
-22.4616 0 33.2073
13.9733 0 -58.658
-14.4976 0 0.433508
8.42268 0 5.63658
2.77795 0 0.45664
-28.5142 0 -16.0078
12.5361 0 -13.8016
-22.1842 0 10.7757
-35.0428 0 -64.091
26.3495 0 -20.9673
-81.9775 0 11.4323
0.99664 0 9.48711
63.2718 0 -22.9102
-21.4048 0 1.32641
11.8869 0 8.87564
-88.4 0 -53.4674
101.22 0 62.1598
-24.037 0 0.325516
-12.8735 0 2.99559
-17.6344 0 -1.33917
47.7532 0 -2.97627
6.7663 0 2.42409
-19.843 0 26.0221
-43.2039 0 30.3204
-47.6101 0 -29.3951
3.90088 0 2.31875
4.09122 0 4.01505
-20.9732 0 -9.17863
15.595 0 3.706
-112.654 0 10.1216
-25.0655 0 20.7885
21.7928 0 -63.7546
-29.8249 0 88.1013
92.6923 0 1.86212
-43.6655 0 47.8402
-54.4234 0 38.6576
-2.39146 0 -3.46277
-19.8608 0 187.197
-17.2886 0 -32.7923
29.3828 0 30.9756
-13.1198 0 -191.368
-49.9503 0 12.4163
8.82285 0 -49.7234
-3.22497 0 15.2786
-10.8138 0 2.2489
-33.567 0 26.4081
36.4929 0 -66.7066
-39.3287 0 15.2372
-58.5917 0 -29.0444
51.0019 0 -71.8576
14.652 0 -9.55697
18.149 0 13.7015
59.9995 0 -0.334563
0.00362565 0 2.60077
-8.55262 0 5.43341
-9.75841 0 -1.99729
15.8634 0 2.08836
-8.12129 0 52.5385
59.0719 0 0.348902
0.170064 0 1.71579
3.09268 0 8.98373
-10.0889 0 -4.14659
-2.32624 0 -4.94223
-6.53056 0 54.426
-39.1857 0 -69.0157
-7.67978 0 -0.688493
12.0097 0 -35.0193
-6.98642 0 -17.6372
2.0967 0 -14.5448
-3.23573 0 -14.6889
59.8279 0 25.4772
15.4996 0 -6.53234
-16.9531 0 -2.59466
4.98976 0 -7.75986
18.6118 0 -15.646
3.11148 0 -20.0336
-36.4188 0 41.6727
-16.967 0 -17.3462
2.00549 0 7.04244
-11.4461 0 7.155
-24.3942 0 -0.190514
13.1591 0 -40.1051
14.4185 0 -21.9739
19.9521 0 -28.4245
32.7609 0 59.1155
-14.007 0 4.53421
5.2104 0 -14.8681
-4.25153 0 -1.80779
-3.41571 0 13.3141
-81.2646 0 -47.8042
57.2092 0 29.6105
-14.1914 0 -0.748506
-0.644778 0 5.26145
9.60624 0 -7.05215
-57.3631 0 -7.18649
31.7671 0 28.9308
1.16765 0 -12.266
-1.63597 0 -14.2094
69.5481 0 -77.783
-52.773 0 57.8297
23.4039 0 -3.67759
38.8187 0 -38.0635
25.0839 0 42.1496
-20.2159 0 -11.6658
4.21886 0 -11.7697
-20.3307 0 -21.2413
19.939 0 -5.18316
4.60916 0 -19.8135
32.4376 0 -27.8972
-12.2291 0 -1.37356
9.57479 0 -5.98951
-26.7706 0 -1.79792
1.47098 0 0.954304
-23.2934 0 -61.8344
-0.492553 0 -6.97824
14.8386 0 11.6033
-94.9426 0 114.777
19.7493 0 -119.259
23.1315 0 -40.4339
-17.7974 0 -16.7413
-8.14714 0 -50.7737
21.3869 0 -25.566
-9.68623 0 1.15106
9.40043 0 0.803047
12.9957 0 14.5883
0.106269 0 -22.1326
-29.8957 0 41.4589
-15.8513 0 37.8872
34.4516 0 -29.1703
-22.0872 0 5.98066
-21.7571 0 27.2143
-19.3456 0 -36.1046
-14.3568 0 20.0991
-37.6384 0 -21.2092
22.7199 0 33.0093
-33.3869 0 6.88327
-12.0929 0 11.5701
15.0498 0 -88.17
-8.10192 0 3.7826
23.419 0 9.32466
4.17351 0 21.8701
-1.46832 0 14.2702
10.9758 0 20.529
4.34552 0 0.463796
0.457885 0 9.31078
3.27634 0 -18.5556
-6.7766 0 6.94604
-8.92399 0 -2.50831
-8.16057 0 -5.87117
13.6018 0 8.38311
42.3076 0 45.2674
-6.25553 0 25.2855
-3.01594 0 -26.2534
6.36169 0 26.9951
-0.0472665 0 -21.0614
-29.3501 0 -20.2806
-23.3021 0 9.1904
2.32488 0 -6.89497
-49.3229 0 32.5488
37.819 0 34.4056
-21.5864 0 7.54668
37.4228 0 -21.1835
-4.34747 0 3.20392
-71.897 0 -13.8116
8.00645 0 11.745
-38.7705 0 -23.8783
12.6922 0 58.0399
-4.90145 0 67.4504
-12.7639 0 16.0337
11.2316 0 -12.6941
-6.96496 0 26.0005
-2.8302 0 -49.3368
-13.9144 0 -1.31257
38.5441 0 18.1948
21.7136 0 50.0756
-6.8153 0 -8.85611
-16.8688 0 -2.05053
61.426 0 10.4723
7.73529 0 17.072
-18.6532 0 45.6295
24.3585 0 -4.98122
4.11665 0 10.8861
17.415 0 -4.45128
-6.29523 0 10.0545
9.59014 0 -7.72671
-7.45891 0 3.51842
-142.905 0 38.9378
23.0387 0 18.4521
106.871 0 -7.95832
53.1574 0 39.3758
-61.118 0 32.726
-6.97048 0 -5.93462
-13.6624 0 29.4344
25.0419 0 2.41646
-1.34982 0 1.33823
34.2322 0 -6.5393
-48.8371 0 -29.5484
6.39431 0 -7.59071
14.1623 0 24.7688
-4.21052 0 -7.76363
13.3478 0 3.29092
-10.7095 0 -12.3067
-2.57565 0 2.26833
14.8739 0 -10.4545
-8.83323 0 -2.68755
-16.2514 0 -2.81785
2.55606 0 -36.9576
6.82323 0 1.15042
-16.8148 0 2.13623
1.92628 0 -16.8044
-9.31069 0 -2.15838
9.63962 0 -16.4482
10.4263 0 -9.51018
-14.173 0 7.59036
13.8598 0 7.84968
-25.7673 0 11.471
29.0275 0 8.69755
36.7838 0 -30.0354
-47.5081 0 18.36
-12.423 0 -13.0095
7.76944 0 -1.51339
12.8715 0 -0.711731
-0.707355 0 -3.55305
-3.38097 0 5.35451
-46.6149 0 -20.3663
10.5275 0 4.08266
-14.2543 0 21.2561
56.665 0 -39.7098
-10.4933 0 -17.7572
1.89594 0 7.19966
-4.67571 0 5.42743
-85.8864 0 8.84888
6.21278 0 13.5703
-3.68856 0 -8.43123
0.228959 0 10.3535
0.863787 0 5.27092
6.75791 0 -30.9243
-5.17021 0 -13.0476
-18.6716 0 41.7885
-152.113 0 -94.191
-30.4975 0 40.1473
-1.9137 0 8.60127
-19.2697 0 26.2632
-2.43964 0 -14.319
-81.6806 0 -77.1322
13.1063 0 -9.17179
-11.0486 0 -43.5282
-13.2516 0 -6.59855
-8.33971 0 -8.90143
10.5993 0 -43.0544
16.8397 0 -18.8534
58.9816 0 -16.512
-38.7295 0 49.438
-10.9888 0 14.8449
5.8933 0 11.7503
18.4007 0 1.51806
11.1511 0 30.2186
15.762 0 14.8736
-2.36799 0 19.7172
39.0264 0 37.1884
12.0601 0 29.7474
-18.6149 0 -7.88149
-8.60446 0 -46.648
2.31198 0 -15.8676
-20.4168 0 3.63562
4.89006 0 -1.73881
32.1116 0 -10.4539
43.163 0 -21.6239
-8.42731 0 17.8691
4.63426 0 7.42289
47.7522 0 -21.9515
-9.10073 0 -72.6761
-7.11827 0 2.35762
8.34414 0 -10.3252
7.98336 0 -0.925206
28.2176 0 2.56296
-48.7654 0 -2.67513
-25.0295 0 -40.8469
44.6661 0 2.21027
-5.07028 0 13.8526
-4.7993 0 15.5679
85.8211 0 -10.3207
-19.5728 0 0.994217
-7.4454 0 10.1179
3.79851 0 7.58458
-32.1483 0 -69.0345
61.7026 0 65.4911
13.135 0 12.6405
-66.0484 0 14.7173
94.6287 0 21.8405
-78.381 0 46.4803
-2.9184 0 -9.78728
38.5714 0 18.5172
23.1043 0 -72.4246
18.4913 0 -34.3767
44.9709 0 40.6355
-7.26644 0 -22.0133
-5.28415 0 14.2947
14.9172 0 -3.59175
16.0504 0 1.32755
95.0573 0 94.2779
0.925098 0 40.6475
-6.09788 0 6.46656
-13.7726 0 15.1052
-9.32921 0 13.26
18.3137 0 7.70791
11.2334 0 -5.10481
19.6549 0 23.6669
-23.175 0 -23.003
-4.00719 0 -15.4009
60.5965 0 11.8521
-11.3779 0 1.77457
-0.273739 0 0.282184
-6.67427 0 9.85053
-22.656 0 -45.9367
0.402462 0 19.1566
-25.2008 0 -15.3337
9.384 0 -8.71064
10.9962 0 6.47163
17.3759 0 -28.3848
21.2695 0 -0.642485
-17.3398 0 4.43143
10.7778 0 4.44529
-5.64546 0 13.5376
2.05259 0 -2.46554
-2.96301 0 -21.1755
-35.0987 0 9.62433
-7.76764 0 10.9882
-36.4947 0 23.2342
-43.6788 0 -7.9029
16.9106 0 55.1147
41.7749 0 241.998
-47.6841 0 -241.772
-4.39321 0 0.307815
14.5063 0 -53.3186
-7.53595 0 10.2207
-5.59959 0 5.37393
-8.75432 0 5.11204
-44.6111 0 55.4368
59.2971 0 -18.5092
-5.99655 0 25.8299
-10.3248 0 19.9211
38.1938 0 31.2376
-26.0942 0 -14.4452
41.9378 0 -34.1154
-7.59114 0 -32.9677
-26.3795 0 22.677
2.79076 0 -4.75465
-16.8078 0 14.7622
-4.45593 0 11.0802
20.353 0 -21.01
-16.1032 0 -27.571
-10.1677 0 18.3548
7.40282 0 -0.8738
3.34791 0 0.873662
46.9735 0 18.9971
10.6558 0 1.03716
52.7987 0 -24.5729
32.4654 0 -56.0901
19.4526 0 4.00066
-12.8669 0 -17.3685
-71.3713 0 -119.661
-8.28507 0 -13.6968
25.2947 0 44.7618
-6.00758 0 -3.74883
65.9909 0 91.2131
8.49624 0 0.693176
15.6602 0 6.77832
-6.87289 0 20.4142
12.5461 0 4.09805
-19.8613 0 2.40063
-1.66144 0 1.36457
5.70862 0 -8.74997
9.5791 0 7.51868
13.3091 0 52.0162
9.34685 0 -6.0795
23.3446 0 -16.462
-0.802185 0 3.04193
-96.4244 0 1.27734
-42.4261 0 25.8734
97.5921 0 -32.9553
-9.74155 0 -3.01011
-16.7674 0 21.0289
13.81 0 3.33082
-22.63 0 37.515
81.4397 0 -66.5913
16.2231 0 5.81201
27.7149 0 7.25287
13.4447 0 5.77074
2.15422 0 35.1833
-26.4311 0 28.2573
-23.9699 0 16.8351
-6.16817 0 -18.0998
-14.8536 0 57.9344
1.14274 0 -12.3937
2.52745 0 3.95012
10.7967 0 0.667047
11.0833 0 -6.79649