# vtk DataFile Version 3.0
SiWiRVisFile
ASCII
DATASET UNSTRUCTURED_GRID
POINTS 1600 DOUBLE
75.0391 100 71.2963
73.3285 100 71.6624
74.2649 100 72.0818
76.1529 100 72.1032
77.2053 100 72.637
78.2425 100 73.0927
79.5077 100 72.4462
80.4566 100 73.0102
81.3129 100 73.7622
80.425 100 71.4196
94.0663 100 60.6819
92.9414 100 60.3917
93.3838 100 61.4859
91.9667 100 59.8061
79.7003 100 62.4887
88.7261 100 55.641
91.5901 100 52.7639
88.6607 100 50.7851
83.0675 100 41.2235
94.0142 100 45.7985
108.466 100 18.1256
107.517 100 16.4621
107.261 100 15.0296
108.817 100 14.741
106.835 100 19.3502
111.724 100 18.0914
110.879 100 9.56485
116.671 100 10.5457
110.047 100 12.7243
110.13 100 11.6314
111.565 100 10.9333
112.803 100 10.5777
110.526 100 10.6573
114.079 100 10.3817
114.71 100 14.55
115.563 100 19.5401
115.553 100 13.9395
115.262 100 17.0768
113.899 100 17.1007
114.708 100 18.2391
133.892 100 48.2009
141.425 100 41.2235
132.103 100 50.0924
133.926 100 51.3526
135.486 100 50.0863
135.371 100 65.3265
133.583 100 60.7494
133.039 100 62.6234
132.441 100 60.2646
132.794 100 61.4901
143.679 100 71.9333
142.367 100 73.7877
143.408 100 73.036
144.657 100 72.6303
146.544 100 72.8556
147.547 100 72.0962
148.68 100 71.8717
150.935 100 72.2821
151.997 100 72.0558
149.985 100 71.5222
72.2051 100 72.4331
73.3113 100 72.8132
75.1463 100 72.6228
76.1932 100 73.2016
77.267 100 73.7526
79.2432 100 73.6781
80.2395 100 74.1163
81.1495 100 74.906
82.1994 100 74.2865
83.5922 100 74.666
84.4672 100 74.0946
92.8277 100 59.1734
91.9469 100 60.9455
91.5525 100 57.0082
89.4145 100 54.599
90.9154 100 57.946
91.0373 100 51.6363
89.6243 100 51.3876
91.8843 100 50.6511
95.6408 100 47.3216
107.326 100 17.9223
94.503 100 26.6974
107.841 100 32.4725
108.402 100 15.7639
108.821 100 16.7269
112.914 100 17.1042
113.538 100 15.7238
112.372 100 15.5645
105.334 100 2.73423
111.213 100 11.9567
112.274 100 11.7523
119.804 100 2.84444
113.813 100 13.6485
115.815 100 12.8029
115.972 100 16.2161
115.9 100 15.1363
113.983 100 12.332
119.185 100 33.1053
130.048 100 26.6085
115.806 100 18.2681
128.682 100 47.572
130.334 100 47.7625
133.742 100 49.3778
134.986 100 51.2616
133.246 100 59.6245
133.499 100 53.6241
132.251 100 56.2503
133.813 100 61.8436
131.324 100 60.0683
140.098 100 74.3777
141.218 100 74.2672
142.406 100 74.8721
143.365 100 74.3789
144.457 100 73.6935
145.522 100 73.4346
147.492 100 73.2877
148.597 100 73.0857
149.565 100 72.6345
152.037 100 73.1959
152.97 100 72.638
72.4148 100 73.517
73.5174 100 74.044
74.3374 100 73.3022
75.3467 100 73.8734
76.3491 100 74.3618
78.2526 100 74.3195
79.4103 100 74.807
80.2017 100 75.5633
81.133 100 76.0924
82.2565 100 75.3629
84.6224 100 75.197
83.0643 100 76.9451
85.5869 100 76.1256
92.0205 100 58.0258
90.4747 100 56.9897
92.5504 100 54.8654
92.7219 100 52.6166
92.3738 100 51.5499
94.2771 100 48.7942
94.4815 100 46.962
95.4098 100 46.2765
104.71 100 33.5714
106.814 100 33.1298
106.804 100 34.3506
93.3042 100 30.2769
107.892 100 33.6439
107.63 100 31.486
106.593 100 32.1228
111.93 100 12.8085
112.162 100 13.9161
113.043 100 12.7237
113.371 100 11.4694
121.693 100 33.3166
115.16 100 29.2062
118.219 100 32.5153
120.562 100 33.2791
118.839 100 34.0892
119.883 100 34.4203
121.072 100 34.3197
128.143 100 46.6175
134.895 100 49.2482
131.236 100 49.5603
134.294 100 50.3029
133.209 100 50.4964
131.956 100 54.1599
132.215 100 55.1811
132.335 100 58.9975
139.612 100 75.4523
140.181 100 76.4732
140.973 100 75.6815
142.11 100 75.893
143.21 100 75.5639
144.305 100 74.9226
145.41 100 74.5483
146.423 100 74.0638
148.371 100 74.1492
149.425 100 73.7286
150.518 100 73.2833
151.529 100 74.2621
152.823 100 73.9844
72.4653 100 74.5783
73.6234 100 75.1086
74.5321 100 74.5064
75.4501 100 75.0538
77.3277 100 74.964
78.4545 100 75.3337
79.285 100 76.001
80.1775 100 76.8208
82.1565 100 76.4496
83.2951 100 75.6928
83.3587 100 78.4202
84.4118 100 76.3365
85.6999 100 74.9015
92.0657 100 55.9988
90.8413 100 56.0257
89.6897 100 56.324
92.0859 100 53.9051
90.8763 100 53.8776
93.4524 100 51.6589
93.0774 100 50.5992
93.096 100 47.1333
96.6537 100 46.7209
105.666 100 32.8893
104.007 100 36.3863
105.767 100 33.9209
105.952 100 34.9808
108.332 100 35.8551
109.307 100 35.0278
108.688 100 31.6435
113.101 100 14.6701
114.711 100 13.0887
111.977 100 27.6138
116.083 100 35.1886
117 100 34.5202
118.01 100 34.7335
120.565 100 35.4161
119.183 100 35.2774
118.775 100 31.6501
127.649 100 47.8794
130.102 100 49.8043
131.199 100 50.7076
133.135 100 52.471
131.339 100 53.1881
131.028 100 54.5578
131.282 100 55.6037
132.821 100 57.8975
131.986 100 57.2559
138.966 100 74.2306
139.422 100 77.5037
141.212 100 76.7941
142.303 100 77.0616
143.288 100 76.5995
144.321 100 76.2364
145.243 100 75.6435
146.291 100 75.1433
147.319 100 74.6135
149.228 100 74.8179
150.322 100 74.4001
151.215 100 75.2726
152.411 100 74.949
72.7292 100 75.6961
73.6679 100 76.2858
74.5911 100 75.6716
76.4276 100 75.6532
77.4336 100 76.0966
78.421 100 76.6302
79.1282 100 77.5511
80.1886 100 77.9225
81.118 100 77.256
82.2976 100 77.706
83.206 100 79.4667
86.304 100 77.0297
86.5884 100 75.9045
94.614 100 53.9037
91.4413 100 54.8343
90.3458 100 55.0947
95.1431 100 53.0137
94.5934 100 51.9159
93.8462 100 49.7429
95.266 100 50.9237
94.978 100 49.8077
101.677 100 42.2065
104.988 100 35.9887
107.187 100 36.6406
106.91 100 35.5164
108.324 100 37.0031
109.307 100 36.4084
110.356 100 36.1155
107.91 100 34.8146
110.702 100 17.5323
109.512 100 17.5807
116.95 100 31.7359
112.807 100 33.6396
114.957 100 35.6838
117.117 100 35.657
117.957 100 33.5379
118.142 100 35.8762
118.61 100 36.9799
124.226 100 42.9371
129.54 100 46.9904
129.477 100 48.6523
129.859 100 50.8447
132.288 100 51.2664
130.291 100 53.2142
129.116 100 53.1773
131.219 100 57.9508
131.074 100 56.7454
139.021 100 76.4803
139.392 100 78.6578
141.341 100 80.3799
142.059 100 78.1327
143.071 100 77.7748
144.205 100 77.2546
145.309 100 76.9068
146.251 100 76.3147
147.225 100 75.8217
148.122 100 75.3011
150.165 100 75.6019
151.195 100 76.4374
152.079 100 76.0057
72.4737 100 76.7944
73.4766 100 77.4386
74.5373 100 76.8516
75.4956 100 76.2331
76.5407 100 76.738
77.7215 100 77.4675
78.0226 100 78.5079
79.3949 100 78.6595
80.4682 100 79.1629
81.3233 100 78.3578
82.2926 100 78.8752
83.9465 100 77.4996
85.8308 100 78.028
85.6621 100 73.7693
88.5332 100 75.2678
93.4288 100 54.0721
95.8925 100 54.1025
96.9281 100 53.9251
96.2356 100 53.0788
94.1561 100 50.8563
96.1621 100 49.4871
96.6986 100 48.1076
102.484 100 41.4955
103.122 100 39.9728
106.161 100 36.2427
106.382 100 37.412
107.988 100 39.4448
109.432 100 37.4591
111.183 100 37.2977
110.457 100 34.6896
115.209 100 34.3641
114.278 100 33.5256
116.327 100 36.4164
115.352 100 37.0062
117.435 100 36.7323
119.463 100 36.311
119.634 100 37.6007
124.9 100 41.6901
127.019 100 48.8372
128.211 100 48.9802
129 100 49.755
131.656 100 52.195
128.334 100 53.9264
129.181 100 54.9034
129.948 100 54.1793
138.493 100 75.5079
142.416 100 69.2618
138.826 100 80.6053
140.481 100 77.99
142.758 100 78.9244
143.829 100 78.515
144.823 100 79.0763
144.926 100 78.0486
146.035 100 77.8584
147.117 100 76.9949
148.105 100 76.4425
149.191 100 75.9657
150.096 100 76.7931
151.017 100 77.6475
151.979 100 77.14
71.4462 100 76.7757
72.4814 100 77.8682
74.7071 100 78.0267
75.5058 100 77.309
76.7042 100 77.8584
76.7516 100 80.2698
77.7751 100 79.6001
79.5953 100 79.7546
80.5375 100 80.2891
81.514 100 79.6528
86.1597 100 79.4075
85.1523 100 77.2393
87.4261 100 80.1247
87.4348 100 75.0866
94.1382 100 54.8732
93.8398 100 52.9135
95.2111 100 54.9816
98.1209 100 53.8973
95.751 100 52.1301
96.4471 100 51.1554
95.763 100 48.5704
99.8474 100 48.3506
103.72 100 41.5211
105.166 100 37.2691
110.477 100 41.2471
108.537 100 38.0589
103.937 100 42.8384
109.596 100 38.5205
103.832 100 44.1009
105.275 100 42.6332
120.663 100 43.534
117.611 100 43.4275
115.479 100 38.3958
118.107 100 42.2916
117.062 100 40.1486
116.332 100 37.5988
117.73 100 37.873
122.008 100 43.1593
124.067 100 44.0784
127.803 100 50.0885
128.62 100 50.8689
130.139 100 52.1362
127.686 100 52.8175
128.069 100 55.003
130.237 100 55.2745
130.071 100 56.3667
137.973 100 74.5951
131.377 100 75.4396
140.438 100 79.7774
142.842 100 79.9753
143.83 100 79.5502
144.867 100 80.2077
146.023 100 79.2997
147.27 100 78.5865
148.08 100 79.3358
148.03 100 77.7381
148.951 100 77.1256
149.731 100 77.8319
152.032 100 78.2218
152.989 100 76.6767
71.4509 100 78.0811
72.4453 100 78.9624
73.7301 100 78.5361
74.7585 100 79.2401
75.7611 100 78.4591
75.9903 100 79.5134
76.8898 100 78.8962
78.5948 100 80.2461
79.5749 100 80.8416
81.1211 100 81.2331
82.145 100 81.22
81.6818 100 82.1735
84.8739 100 78.4918
84.2312 100 79.4688
83.0692 100 81.8699
90.0895 100 77.1619
94.088 100 57.4499
96.2941 100 55.0945
98.4509 100 52.674
97.4049 100 53.0062
97.4958 100 51.9202
97.0057 100 50.2468
102.799 100 42.4716
104.273 100 37.8955
107.444 100 37.7789
109.483 100 39.7788
106.527 100 38.5981
102.975 100 45.1103
105.455 100 44.6228
107.477 100 45.348
119.302 100 43.0076
120.964 100 44.6006
121.844 100 45.4899
118.106 100 40.1534
117.852 100 41.1682
117.835 100 39.0505
118.698 100 38.33
123.076 100 43.6731
125.87 100 49.1868
128.99 100 51.9291
127.905 100 51.6825
126.758 100 51.5748
126.98 100 55.1534
128.895 100 56.1916
130.945 100 74.1075
141.822 100 82.4203
141.345 100 81.4558
140.289 100 80.8414
142.252 100 80.8889
142.937 100 82.2073
143.634 100 80.6773
145.888 100 80.5435
147.003 100 80.9308
147.124 100 79.8619
149.068 100 79.899
148.813 100 78.501
149.876 100 79.297
150.996 100 78.8134
152.122 100 79.324
153.044 100 78.8127
71.0447 100 79.1774
71.9358 100 79.9795
73.6765 100 79.626
74.4745 100 80.2664
75.8783 100 82.3999
73.126 100 82.7667
75.5124 100 80.4645
77.6092 100 80.9584
78.6136 100 81.3729
78.2525 100 82.4394
79.2608 100 82.2214
80.0516 100 83.2242
80.5772 100 82.2838
81.1715 100 83.217
83.12 100 80.6211
87.2851 100 77.6597
95.9709 100 57.4052
95.7765 100 56.2889
99.3489 100 53.3784
99.4647 100 50.7867
97.3104 100 49.061
[...]
POINT_DATA 1600
SCALARS mass double
LOOKUP_TABLE default
1
1
1
1
1
1
1
1
1
1
1
1
1
1
1
1
1
1
1
1
1
1
1
1
1
1
1
1
1
1
1
1
1
1
1
1
1
1
1
1
1
1
1
1
1
1
1
1
1
1
1
1
1
1
1
1
1
1
1
1
1
1
1
1
1
1
1
1
1
1
1
1
1
1
1
1
1
1
1
1
1
1
1
1
1
1
1
1
1
1
1
1
1
1
1
1
1
1
1
1
1
1
1
1
1
1
1
1
1
1
1
1
1
1
1
1
1
1
1
1
1
1
1
1
1
1
1
1
1
1
1
1
1
1
1
1
1
1
1
1
1
1
1
1
1
1
1
1
1
1
1
1
1
1
1
1
1
1
1
1
1
1
1
1
1
1
1
1
1
1
1
1
1
1
1
1
1
1
1
1
1
1
1
1
1
1
1
1
1
1
1
1
1
1
1
1
1
1
1
1
1
1
1
1
1
1
1
1
1
1
1
1
1
1
1
1
1
1
1
1
1
1
1
1
1
1
1
1
1
1
1
1
1
1
1
1
1
1
1
1
1
1
1
1
1
1
1
1
1
1
1
1
1
1
1
1
1
1
1
1
1
1
1
1
1
1
1
1
1
1
1
1
1
1
1
1
1
1
1
1
1
1
1
1
1
1
1
1
1
1
1
1
1
1
1
1
1
1
1
1
1
1
1
1
1
1
1
1
1
1
1
1
1
1
1
1
1
1
1
1
1
1
1
1
1
1
1
1
1
1
1
1
1
1
1
1
1
1
1
1
1
1
1
1
1
1
1
1
1
1
1
1
1
1
1
1
1
1
1
1
1
1
1
1
1
1
1
1
1
1
1
1
1
1
1
1
1
1
1
1
1
1
1
1
1
1
1
1
1
1
1
1
1
1
1
1
1
1
1
1
1
1
1
1
1
1
1
1
1
1
1
1
1
1
1
1
1
1
1
1
1
1
1
1
1
1
1
1
1
1
1
1
1
1
1
1
1
1
1
1
1
1
1
1
1
1
1
1
1
1
1
1
1
1
1
1
1
1
1
1
1
1
1
1
1
1
1
1
1
1
1
1
1
1
1
1
1
1
1
1
1
1
1
1
1
1
1
1
1
1
1
1
1
1
1
1
1
1
1
1
1
1
1
1
1
1
1
1
1
1
1
1
1
1
1
1
1
1
1
1
1
1
1
1
1
1
1
1
1
1
1
1
1
1
1
1
1
1
1
1
1
1
1
1
1
1
1
1
1
1
1
1
1
1
1
1
1
1
1
1
1
1
1
1
1
1
1
1
1
1
1
1
1
1
1
1
1
1
1
1
1
1
1
1
1
1
1
1
1
1
1
1
1
1
1
1
1
1
1
1
1
1
1
1
1
1
1
1
1
1
1
1
1
1
1
1
1
1
1
1
1
1
1
1
1
1
1
1
1
1
1
1
1
1
1
1
1
1
1
1
1
1
1
1
1
1
1
1
1
1
1
1
1
1
1
1
1
1
1
1
1
1
1
1
1
1
1
1
1
1
1
1
1
1
1
1
1
1
1
1
1
1
1
1
1
1
1
1
1
1
1
1
1
1
1
1
1
1
1
1
1
1
1
1
1
1
1
1
1
1
1
1
1
1
1
1
1
1
1
1
1
1
1
1
1
1
1
1
1
1
1
1
1
1
1
1
1
1
1
1
1
1
1
1
1
1
1
1
1
1
1
1
1
1
1
1
1
1
1
1
1
1
1
1
1
1
1
1
1
1
1
1
1
1
1
1
1
1
1
1
1
1
1
1
1
1
1
1
1
1
1
1
1
1
1
1
1
1
1
1
1
1
1
1
1
1
1
1
1
1
1
1
1
1
1
1
1
1
1
1
1
1
1
1
1
1
1
1
1
1
1
1
1
1
1
1
1
1
1
1
1
1
1
1
1
1
1
1
1
1
1
1
1
1
1
1
1
1
1
1
1
1
1
1
1
1
1
1
1
1
1
1
1
1
1
1
1
1
1
1
1
1
1
1
1
1
1
1
1
1
1
1
1
1
1
1
1
1
1
1
1
1
1
1
1
1
1
1
1
1
1
1
1
1
1
1
1
1
1
1
1
1
1
1
1
1
1
1
1
1
1
1
1
1
1
1
1
1
1
1
1
1
1
1
1
1
1
1
1
1
1
1
1
1
1
1
1
1
1
1
1
1
1
1
1
1
1
1
1
1
1
1
1
1
1
1
1
1
1
1
1
1
1
1
1
1
1
1
1
1
1
1
1
1
1
1
1
1
1
1
1
1
1
1
1
1
1
1
1
1
1
1
1
1
1
1
1
1
1
1
1
1
1
1
1
1
1
1
1
1
1
1
1
1
1
1
1
1
1
1
1
1
1
1
1
1
1
1
1
1
1
1
1
1
1
1
1
1
1
1
1
1
1
1
1
1
1
1
1
1
1
1
1
1
1
1
1
1
1
1
1
1
1
1
1
1
1
1
1
1
1
1
1
1
1
1
1
1
1
1
1
1
1
1
1
1
1
1
1
1
1
1
1
1
1
1
1
1
1
1
1
1
1
1
1
1
1
1
1
1
1
1
1
1
1
1
1
1
1
1
1
1
1
1
1
1
1
1
1
1
1
1
1
1
1
1
1
1
1
1
1
1
1
1
1
1
1
1
1
1
1
1
1
1
1
1
1
1
1
1
1
1
1
1
1
1
1
1
1
1
1
1
1
1
1
1
1
1
1
1
1
1
1
1
1
1
1
1
1
1
1
1
1
1
1
1
1
1
1
1
1
1
1
1
1
1
1
1
1
1
1
1
1
1
1
1
1
1
1
1
1
1
1
1
1
1
1
1
1
1
1
1
1
1
1
1
1
1
1
1
1
1
1
1
1
1
1
1
1
1
1
1
1
1
1
1
1
1
1
1
1
1
1
1
1
1
1
1
1
1
1
1
1
1
1
1
1
1
1
1
1
1
1
1
1
1
1
1
1
1
1
1
1
1
1
1
1
1
1
1
1
1
1
1
1
1
1
1
1
1
1
1
1
1
1
1
1
1
1
1
1
1
1
1
1
1
1
1
1
1
1
1
1
1
1
1
1
1
1
1
1
1
1
1
1
1
1
1
1
1
1
1
1
1
1
1
1
1
1
1
1
1
1
1
1
1
1
1
1
1
1
1
1
1
1
1
1
1
1
1
1
1
1
1
1
1
1
1
1
1
1
1
1
1
1
1
1
1
1
1
1
1
1
1
1
1
1
1
1
1
1
1
1
1
1
1
1
1
1
1
1
1
1
1
1
1
1
1
1
1
1
1
1
1
1
1
1
1
1
1
1
1
1
1
1
1
1
1
1
1
1
1
1
1
1
1
1
1
1
1
1
1
1
1
1
1
1
1
1
1
1
1
1
1
1
1
1
1
1
1
1
1
1
1
1
1
1
1
1
1
1
1
1
1
1
1
1
1
1
1
1
1
1
1
1
1
1
1
1
1
1
1
1
1
1
1
1
1
1
1
1
1
1
1
1
1
1
1
1
1
1
1
1
1
1
1
1
1
1
1
1
1
1
1
1
1
1
1
1
1
1
1
1
1
1
1
1
1
1
1
1
1
1
1
1
1
1
1
1
1
1
1
1
1
1
1
1
1
1
1
VECTORS force double
10.4877 0 12.5351
-70.0604 0 -15.8333
2.08132 0 23.0245
-2.69367 0 -5.42897
-13.2802 0 1.28429
2.70459 0 18.2801
-8.39521 0 7.63749
0.489492 0 9.17032
-63.7939 0 -26.6515
-5.94379 0 10.8204
16.3652 0 -33.006
3.76315 0 -0.815028
-33.0721 0 17.1474
-17.4505 0 19.4888
0 0 0
18.0027 0 -4.741
3.27605 0 2.90574
2.98175 0 1.86462
0 0 0
8.72468 0 16.4503
2.22921 0 -13.6906
10.3416 0 1.73422
13.6872 0 11.4582
-1.97816 0 -3.83289
2.44817 0 -5.74809
-3.63429 0 -7.24035
0.863521 0 11.0021
-0.0881709 0 0.23239
8.30273 0 4.55426
-7.53425 0 26.4293
22.046 0 -26.8412
-24.1649 0 -15.9281
0.228888 0 -41.5965
-17.7655 0 12.4686
-45.9756 0 21.7458
-0.459497 0 -15.2099
36.942 0 -34.9231
-11.5176 0 21.237
173.156 0 -1.48981
-6.63639 0 -14.1403
3.70689 0 16.2036
0 0 0
93.8066 0 52.2512
-37.6602 0 12.5028
23.3891 0 71.8966
0 0 0
-2.21713 0 -26.1264
-7.32991 0 -2.57136
-42.1976 0 46.3142
-33.0288 0 -0.171225
8.69529 0 11.3997
5.40712 0 -11.8495
12.0924 0 17.8818
-7.518 0 -11.2942
-46.7313 0 -10.0721
2.64909 0 22.6295
8.01319 0 18.8556
-19.6375 0 -10.1664
15.4689 0 4.50138
-3.47176 0 22.1396
16.4052 0 -7.55349
4.64733 0 1.63215
90.1958 0 15.7042
21.0083 0 3.95738
6.9265 0 1.60434
-17.1104 0 -12.6908
36.0519 0 5.86581
4.8636 0 -0.638465
52.1395 0 24.3114
-36.6172 0 7.21942
55.2605 0 -26.7858
18.1489 0 -9.18608
9.23557 0 -5.24869
10.9749 0 -10.9651
-34.5054 0 -6.10039
13.4688 0 31.2202
16.9704 0 1.24755
4.77296 0 -0.520733
-30.7077 0 -56.464
11.6203 0 34.9913
7.78031 0 -0.859541
0 0 0
7.41513 0 105.174
-27.7847 0 -35.7876
-1.24321 0 36.124
-162.862 0 -4.44483
-8.46368 0 4.20846
14.9074 0 -3.5685
0 0 0
-35.3177 0 15.4754
45.225 0 4.459
0 0 0
-34.9237 0 17.7976
-8.01825 0 9.80355
1.18285 0 15.5332
-14.5 0 -32.7793
66.1007 0 -24.0439
13.5377 0 -41.5039
0 0 0
1.89096 0 0.403484
-17.5566 0 50.2551
-8.11088 0 13.394
-6.91042 0 -14.6538
26.0432 0 -22.7245
58.3665 0 -30.5437
-7.89651 0 -9.73443
-4.32185 0 -24.8141
24.2088 0 0.787875
9.17316 0 -4.35862
-6.17918 0 13.3808
18.4903 0 9.66417
-42.2533 0 -27.5956
7.02946 0 -24.1928
-24.8712 0 38.585
3.72342 0 -16.6312
47.292 0 35.612
-58.2504 0 -43.6623
33.1535 0 -28.8213
-29.9544 0 7.84397
7.36809 0 1.39669
16.2583 0 -21.6147
-27.8626 0 -33.3464
-18.7401 0 21.7107
26.1391 0 -33.7231
-2.09168 0 12.3517
2.27327 0 -71.4966
-22.3787 0 0.980199
70.3289 0 -41.1231
4.97467 0 6.06538
-24.1376 0 3.63556
-7.56355 0 16.7435
29.8481 0 -20.6505
-86.7966 0 14.8826
8.91288 0 7.63012
-5.44692 0 65.5957
21.2085 0 27.93
7.83908 0 1.86992
14.6754 0 63.4823
34.3404 0 -38.3015
4.5747 0 -8.4372
-6.62141 0 -17.7713
6.80169 0 -5.18321
16.2237 0 77.7072
45.9858 0 -24.9135
0 0 0
-20.4527 0 1.39119
-56.713 0 -94.5403
-1.06199 0 -56.6452
-0.223286 0 6.30512
15.2953 0 1.31446
-75.0472 0 26.03
-3.00498 0 4.27558
-8.10746 0 8.76743
0 0 0
-29.8628 0 23.6665
-10.0896 0 15.7357
55.062 0 55.9449
30.2999 0 -5.88443
-14.8254 0 -3.70842
-1.16558 0 3.23882
-60.4787 0 -51.7358
-82.3905 0 -36.6954
40.1312 0 8.68854
-19.8191 0 -6.11555
79.2022 0 -80.773
65.7207 0 -22.6813
-7.07452 0 -1.87171
7.02647 0 1.81498
-36.5137 0 0.354755
1.67912 0 -8.32359
-8.40248 0 47.6323
35.1107 0 -40.8832
20.0583 0 15.5451
-39.8823 0 -24.9679
-16.3063 0 -46.2079
-26.9486 0 7.62489
39.439 0 25.7293
-11.2113 0 21.8968
5.4009 0 -47.7558
8.46474 0 -44.767
24.1231 0 36.3812
4.17226 0 21.9527
-60.1293 0 16.9076
56.185 0 -5.96915
2.45244 0 -6.35105
-38.6335 0 60.5757
-27.331 0 41.0829
-61.8988 0 -50.5323
-39.6862 0 1.01407
11.7249 0 47.5013
-8.16863 0 -26.6127
-1.75786 0 3.96518
2.79572 0 14.6516
-15.5026 0 -17.5024
53.2361 0 -24.5944
-43.3737 0 -60.6684
-16.0441 0 -38.825
9.44657 0 0.0442076
3.01428 0 40.9718
-14.8925 0 4.35586
11.1374 0 -3.46455
-18.7362 0 10.9761
6.38127 0 -55.1672
-23.9883 0 21.7729
15.2552 0 31.6221
-33.9014 0 51.9728
-4.83822 0 2.72544
-3.48258 0 16.1559
16.4985 0 11.6005
-0.711408 0 -9.61136
66.5613 0 24.8233
0 0 0
-9.55263 0 9.83849
-55.774 0 -10.4858
30.851 0 47.6793
-16.923 0 -16.4683
-25.6416 0 -28.3934
36.6814 0 -51.0723
-11.4586 0 13.0998
19.4432 0 -30.7876
-13.3152 0 7.89371
-1.4723 0 -3.33877
25.6811 0 58.793
-76.0075 0 -5.88091
-53.5311 0 66.9559
21.6202 0 33.7729
39.1685 0 10.5369
38.0882 0 6.22589
8.25982 0 11.0823
23.1412 0 3.88445
-41.9896 0 -43.6678
-2.20917 0 58.8008
9.80794 0 -81.1561
16.1977 0 8.19931
28.2087 0 43.4297
7.12915 0 0.402919
16.1168 0 27.4646
9.85162 0 18.7556
1.11838 0 29.7449
-27.4945 0 39.8047
-25.1121 0 8.56428
-56.913 0 -22.2951
-48.2728 0 4.04105
-5.56854 0 -35.8696
24.7113 0 -4.49626
-7.47074 0 0.999519
-5.29761 0 -9.2495
29.6403 0 8.72887
67.1407 0 16.1192
-21.4495 0 16.7706
-69.3262 0 48.0862
-0.812278 0 -13.2144
79.8115 0 -18.3889
-20.9151 0 36.432
-2.17294 0 19.9768
16.0997 0 -15.3689
-3.97709 0 -33.641
2.4988 0 5.91755
-19.2971 0 60.2666
10.971 0 12.6824
1.45591 0 -2.39165
-8.42004 0 16.0016
51.3815 0 -4.70357
26.516 0 0.38712
59.1326 0 -36.2367
-6.60471 0 -21.8994
-22.2898 0 -34.7215
10.2056 0 -6.18126
-14.0731 0 -4.15706
-3.92848 0 4.08751
6.59331 0 10.2333
7.16649 0 3.71607
6.32662 0 -0.489927
20.3306 0 -4.13707
-31.2591 0 -29.8773
-48.7989 0 21.2762
65.1227 0 5.54247
-26.5231 0 19.4791
-5.48324 0 4.59878
36.3633 0 -33.8797
-8.17703 0 3.64095
-16.0098 0 34.1919
2.59168 0 -17.6821
-22.5355 0 -52.1184
25.5361 0 -18.7723
-37.3182 0 29.9189
-5.96518 0 -18.7154
91.3003 0 -10.1322
-6.46896 0 -7.92625
-30.4194 0 -33.6593
-50.5748 0 -14.7159
40.9534 0 -7.22522
-32.0214 0 68.0026
-14.9771 0 4.48288
-23.6184 0 -13.215
-60.3646 0 4.95246
97.5429 0 -8.28279
42.6543 0 -18.1812
-191.451 0 44.8831
142.347 0 -64.706
88.2168 0 -18.6383
25.1296 0 -21.1643
20.65 0 23.8831
18.6695 0 -4.98015
-13.5286 0 25.2695
-3.0163 0 -20.4649
3.00873 0 13.5089
-13.4647 0 9.31568
33.0602 0 -38.9068
-16.7663 0 3.50444
7.81449 0 -20.5926
68.8762 0 11.0467
64.3197 0 36.6883
-12.5675 0 8.53272
13.0896 0 4.39698
-19.5865 0 -29.3726
-69.7318 0 -11.8283
29.9061 0 68.0973
31.671 0 -1.61025
24.5838 0 -27.7834
50.9681 0 110.492
33.6382 0 -27.9603
8.3412 0 -85.2129
14.1628 0 5.86613
-56.9643 0 33.1317
-17.2935 0 2.93706
5.58382 0 -9.09786
9.58933 0 -6.66133
-7.60331 0 -5.44304
-11.697 0 11.3335
-0.385274 0 10.1053
2.83901 0 9.01575
-8.72638 0 6.26735
7.6663 0 -0.859748
-1.05466 0 17.4404
16.5452 0 16.2821
-21.6802 0 -10.5886
-3.73805 0 6.91299
4.3287 0 16.7107
-11.3628 0 -13.4307
-8.05122 0 12.341
12.6784 0 -49.8399
-6.92857 0 6.69582
-33.7677 0 26.7463
0.337699 0 39.0373
31.9091 0 5.53626
0 0 0
18.9772 0 -51.6686
-10.0294 0 -7.78872
39.9353 0 -15.9684
33.7207 0 -44.806
9.18629 0 59.9764
15.7865 0 -49.3469
4.2138 0 -6.59725
10.1023 0 7.49739
12.2948 0 5.44394
-62.531 0 28.0015
0.633656 0 -17.7093
-22.8976 0 0.645309
35.3999 0 1.6553
-61.8347 0 12.3863
28.6932 0 10.1306
-15.0114 0 10.5174
58.1039 0 23.9038
-22.7719 0 -37.4083
6.15755 0 6.83779
-50.4283 0 -15.8107
-43.4594 0 0.0778985
22.2737 0 -2.90016
-17.7826 0 1.35343
-8.24233 0 -47.5554
-41.2494 0 -45.1955
-3.41986 0 7.91746
-13.401 0 4.35623
-13.2592 0 31.4227
11.0839 0 -0.358544
1.78548 0 -2.63656
-47.2245 0 -30.1901
-4.99493 0 -63.686
-24.415 0 35.0298
-98.7926 0 -93.9085
-7.6022 0 6.14797
-13.4419 0 4.84486
23.5176 0 -13.9772
-1.14255 0 -1.68807
-10.7881 0 37.0622
2.24343 0 6.86983
-5.68814 0 29.5677
-8.01076 0 13.5597
-11.8168 0 13.1443
31.303 0 -2.78443
-12.4825 0 -20.5719
6.45583 0 -14.6171
2.33134 0 11.4702
-34.8007 0 -0.0557038
4.39703 0 -11.2477
-21.5599 0 -20.4541
-1.4009 0 19.4011
18.5784 0 5.63365
19.8949 0 -11.3898
24.7161 0 -23.7396
-8.5372 0 -19.5181
0.563955 0 -2.6056
7.47141 0 12.2819
-28.0462 0 9.25317
-26.4303 0 -10.4177
-50.5209 0 -21.5366
-8.38992 0 -18.2502
-13.531 0 -33.0794
-37.2066 0 10.7294
12.1067 0 57.6618
-37.0172 0 -27.3324
-2.24326 0 7.69499
-11.4687 0 0.329174
18.216 0 -4.24684
-19.606 0 -15.9935
-4.2524 0 -26.7543
36.7881 0 41.4269
-8.69172 0 15.6579
-2.3654 0 -2.69916
-30.9707 0 10.3676
1.43782 0 9.78963
-10.8332 0 -4.09536
16.6546 0 -42.6434
-9.54141 0 -17.7102
-20.9612 0 -18.7202
17.6314 0 30.4537
31.3884 0 39.4189
1.65554 0 18.4051
-85.1593 0 1.07895
92.6688 0 -32.9662
7.76904 0 51.2088
-38.1841 0 4.36238
75.3719 0 -6.38551
-103.219 0 -89.6033
-13.3139 0 -3.20334
10.6919 0 7.13002
35.793 0 25.0341
-2.93275 0 9.06205
10.2653 0 -31.3005
-0.348723 0 -11.5896
23.0266 0 -39.3718
34.4952 0 68.8499
0.660589 0 17.6519
-1.70351 0 -5.72395
-3.30416 0 -12.4839
-1.73124 0 -20.5561
1.31241 0 0.511492
-44.1143 0 -108.649
-3.72304 0 -29.4726
5.73276 0 -0.318065
2.49611 0 19.0279
12.2445 0 -14.5058
66.6665 0 -55.3295
-16.318 0 41.5505
5.29446 0 3.405
30.8906 0 -17.825
-33.9732 0 -5.50779
85.2931 0 5.00794
15.0192 0 10.4071
-23.3178 0 15.4836
14.5721 0 -50.4692
20.002 0 -43.5753
-1.94913 0 -17.3272
6.63018 0 82.0553
33.1296 0 -44.6706
-48.7981 0 20.7078
0.210896 0 15.9399
64.8523 0 29.8332
1.83079 0 10.334
35.6603 0 26.9815
29.7325 0 -3.355
-5.74949 0 34.8955
-25.4558 0 -28.1341
-98.7271 0 -33.3013
19.076 0 8.69025
84.0178 0 -96.0908
7.57943 0 3.61913
-40.2245 0 24.4235
15.717 0 -52.1768
20.2012 0 -2.57157
9.48296 0 4.41322
-61.4466 0 -38.6465
24.4132 0 62.9232
4.70753 0 -28.4948
-37.6669 0 1.76447
51.1804 0 -3.26202
-8.15395 0 -3.64932
-11.8173 0 -12.2239
-94.5434 0 -4.73747
94.265 0 20.3869
-31.1347 0 20.923
-4.41547 0 -32.118
27.7441 0 -19.7674
-3.05352 0 3.95084
-19.0318 0 -2.16617
3.32832 0 2.4101
13.2884 0 -10.0886
-4.00454 0 -40.1244
0.547134 0 -12.0891
-29.5662 0 3.1063
-11.6747 0 0.0208271
-12.2476 0 -3.82073
1.23279 0 -3.08763
-7.67806 0 -10.9149
-4.56734 0 -13.4668
8.23756 0 -4.00409
-7.64695 0 15.0136
88.5704 0 9.81152
10.183 0 -26.4187
-11.2655 0 -9.179
30.235 0 -0.882845
-32.6168 0 28.3895
40.5997 0 -13.9581
-8.10305 0 10.7214
-67.83 0 -19.8721
-14.4578 0 4.26618
0.25417 0 -8.60492
-2.32184 0 -9.20886
70.2968 0 -13.8315
-35.1763 0 0.0928213
-11.1269 0 -14.7079
-5.44406 0 -4.56164
-1.55127 0 -12.3322
19.0561 0 -7.64264
-49.7007 0 -62.4392
31.0941 0 67.6326
26.275 0 36.3079
3.48498 0 5.14205
-40.7461 0 -15.6936
9.35397 0 8.75835
77.6561 0 1.2218
6.30179 0 13.0909
18.2335 0 40.6699
2.10362 0 -82.5464
-56.7205 0 -56.7393
30.9064 0 -3.48218
-13.5574 0 -23.7935
18.7816 0 18.0017
-17.1693 0 37.3053
-62.2308 0 39.6327
3.85623 0 18.5694
59.1526 0 -60.3873
-37.9225 0 -34.1179
-13.0695 0 39.2323
-25.4118 0 -44.4253
16.202 0 0.895131
55.8616 0 -0.0133536
-18.9805 0 24.0831
34.3814 0 37.6468
20.4824 0 -10.7906
28.2983 0 12.8556
-35.0262 0 -14.3639
-85.6671 0 -16.9512
4.04097 0 -11.6051
-5.99772 0 -3.23288
17.8978 0 1.23915
-7.77138 0 24.2629
15.6496 0 38.9485
-6.41006 0 10.6869
-4.1735 0 -7.37187
-3.12176 0 12.7107
0.819907 0 15.3535
32.2036 0 5.69205
12.3418 0 14.7914
25.7586 0 11.3806
-0.263751 0 -2.96211
22.6447 0 5.9881
-13.4646 0 -39.4694
7.51811 0 -7.88699
11.6474 0 4.99463
-0.755859 0 -23.3993
-14.6718 0 8.11883
7.01201 0 -49.7734
-6.43405 0 20.0467
-100.325 0 56.5689
50.8329 0 -26.7942
-23.0904 0 -11.225
1.96536 0 -9.29001
38.4795 0 -11.8187
3.58134 0 -2.87095
-17.307 0 0.350631
-83.5485 0 17.6309
-9.068 0 10.4735
-6.8988 0 -3.38456
8.52649 0 -7.63861
6.83378 0 -0.212261
0.0418908 0 -3.34576
8.57295 0 22.762
20.711 0 -5.51414
53.752 0 -77.3889
10.8313 0 38.1842
55.1716 0 31.2711
14.247 0 -11.8981
-48.0532 0 92.6627
-4.50184 0 3.06856
-50.0461 0 -20.9936
8.25547 0 -2.29564
-81.8618 0 74.951
56.0509 0 -85.1051
-14.2868 0 15.5877
-0.386855 0 0.901222
-3.16955 0 13.4397
7.28749 0 2.40497
10.1076 0 4.91203
27.3868 0 19.7138
7.40369 0 28.953
11.9458 0 -3.95342
-0.0414208 0 5.84044
-16.4071 0 -1.49139
-8.06545 0 -1.25394
23.7506 0 -56.7146
63.3947 0 7.85888
18.9863 0 -16.5311
8.35579 0 -3.85635
89.1931 0 107.41
-8.17784 0 4.48947
-19.178 0 20.4907
-9.72374 0 -1.09253
1.27357 0 -22.4699
18.884 0 -7.58602
-14.2726 0 -1.44399
-5.68824 0 1.37641
-21.9407 0 -32.7341
-0.900592 0 26.3294
-11.4414 0 -1.14372
-3.54242 0 4.27097
7.67849 0 -7.11405
-39.1434 0 95.8761
-3.54509 0 21.3871
-25.3939 0 -3.88305
-19.9589 0 15.1805
-4.2455 0 0.628247
23.945 0 -1.51006
-50.8861 0 74.1594
12.1221 0 6.57932
-75.2542 0 28.2316
-8.76662 0 51.8616
-20.4609 0 21.0295
28.7507 0 58.2177
11.2899 0 -55.85
-6.66048 0 -36.3543
-28.7028 0 -61.7933
7.94586 0 14.2462
-40.3996 0 57.6397
-38.0956 0 24.0759
-55.7109 0 76.3469
10.3178 0 -43.8318
-46.7566 0 16.2487
-0.994428 0 19.7908
-143.95 0 1.1546
5.70104 0 -15.6056
-23.4825 0 -3.14428
-7.27518 0 -15.5272
-8.11092 0 85.3719
11.5355 0 -3.25946
8.51118 0 -42.6669
-21.4585 0 18.7333
35.6424 0 5.00364
-24.7781 0 -42.5985
-31.5296 0 46.2618
9.36651 0 7.71072
93.9246 0 7.2771
-6.00241 0 -7.79095
7.44368 0 20.8005
16.3311 0 1.19641
94.0685 0 92.4674
-64.1747 0 -119.675
-4.82081 0 -12.2049
5.35591 0 3.3093
-3.56185 0 -14.3153
36.5027 0 41.7994
-42.2966 0 -19.3357
11.5525 0 18.3611
67.6316 0 30.8547
-18.9919 0 37.8386
13.4949 0 -4.99648
-9.14221 0 21.4933
20.8033 0 10.3543
-34.3291 0 -28.6982
-11.1707 0 -0.365665
-42.9505 0 -29.2346
-5.20073 0 -11.2833
35.1058 0 -17.7155
1.54908 0 -22.45
5.72264 0 4.65252
-28.6652 0 43.1265
2.40679 0 3.36823
-11.3377 0 6.61607
-5.43077 0 7.63266
22.5684 0 -4.86701
29.621 0 -13.5225
5.17203 0 -6.1678
4.46023 0 15.6926
36.2276 0 14.0373
4.60014 0 -18.5398
5.40514 0 5.81202
5.27586 0 8.13198
-1.55604 0 -7.35209
-16.2535 0 51.8402
139.177 0 -21.4855
-8.93375 0 -4.19418
3.70654 0 3.33411
71.23 0 -49.5813
-16.2 0 80.4373
-1.75389 0 -19.6086
-82.4804 0 32.3759
-13.5181 0 -1.85759
0.798859 0 7.05563
1.60651 0 -19.6558
72.1308 0 50.411
-17.3694 0 -11.3773
0.614416 0 -7.08085
-81.2794 0 31.5656
-14.0142 0 5.11778
38.1627 0 -1.62143
44.1748 0 23.8714
-20.4819 0 1.22769
-39.6612 0 -11.3912
18.859 0 -1.66018
-34.3817 0 -10.8596
6.00613 0 -45.8272
-24.2902 0 -9.07404
8.11248 0 11.8732
-1.90171 0 8.21876
50.6656 0 -68.4033
-6.76006 0 -11.0745
-8.85728 0 -26.234
-7.9477 0 11.3439
-21.7265 0 30.0305
-6.21903 0 4.4993
-15.5986 0 -1.15905
12.041 0 36.3522
-13.4696 0 -19.04
-10.3401 0 -14.0015
30.7381 0 -87.1098
5.86648 0 -8.8582
15.7785 0 3.24493
-4.07808 0 -3.81623
40.2267 0 -18.8566
7.14019 0 17.6366
32.521 0 17.5943
25.5431 0 -8.08748
15.3274 0 21.7432
8.56502 0 44.1111
-70.8312 0 -9.24397
-13.7139 0 2.09423
-10.6088 0 4.2424
-34.7863 0 17.848
17.1508 0 -10.2568
3.34756 0 -15.424
2.08293 0 -1.27884
6.95257 0 -9.25813
5.37281 0 -6.68151
17.5048 0 21.0707
-0.941848 0 -18.952
-7.16653 0 1.16877
15.5279 0 9.58729
8.48392 0 -14.081
-10.7218 0 -6.96681
59.4829 0 39.1797
-13.7017 0 0.658296
2.15498 0 10.3328
20.9543 0 -9.19284
-30.251 0 1.43238
22.3447 0 8.90906
70.1606 0 0.269344
-2.52482 0 36.9433
26.4125 0 -55.6058
-23.0353 0 -26.9875
-3.11367 0 -3.22816
-6.74752 0 3.79914
-20.6223 0 32.3232
21.2854 0 0.879811
-0.992694 0 -1.56152
31.9569 0 38.7293
-61.5595 0 -50.5161
28.1792 0 124.099
27.5914 0 -33.8793
-19.9089 0 -0.857753
-10.2769 0 -60.4679
0.474014 0 6.92126
17.5801 0 3.09417
-60.2117 0 -149.317
-13.4083 0 -21.2405
27.4519 0 23.0764
10.4484 0 13.3407
-25.3246 0 -10.0269
-2.52988 0 -15.1628
-55.93 0 77.8548
1.48224 0 2.76782
-34.3752 0 -26.1231
-39.5084 0 31.8034
-8.52629 0 11.1024
-129.888 0 -100.974
5.19293 0 1.74074
-5.91225 0 22.7247
-11.8224 0 -61.7662
-15.6354 0 -3.01697
-4.18197 0 1.12593
-9.95756 0 -19.9137
14.6428 0 8.51573
15.3129 0 2.70839
11.2998 0 16.6349
21.5651 0 53.6749
0.569604 0 34.0474
86.126 0 -109.724
-46.462 0 -39.0725
-3.20299 0 15.32
-14.4966 0 -8.50425
-24.3245 0 9.01889
14.3112 0 12.1099
-6.7117 0 -3.69394
3.41052 0 -5.07205
11.2265 0 1.12683
-10.7402 0 5.38728
-7.85471 0 4.6748
-7.87812 0 8.49349
-7.35702 0 12.4035
14.4259 0 8.16074
-50.3394 0 18.3927
9.66001 0 -6.8717
3.47044 0 -3.21793
-12.0612 0 3.9518
40.5982 0 -80.6434
8.68312 0 -19.1523
-6.89766 0 36.6324
7.57124 0 -27.884
-6.26903 0 4.34699
20.3247 0 51.4919
-3.37278 0 -23.4191
24.5829 0 -13.5176
43.9987 0 -9.72001
3.81684 0 -2.0341
89.7001 0 -21.7288
41.989 0 -61.6103
-44.3907 0 62.9612
1.26245 0 25.768
-7.36318 0 8.87534
6.73812 0 -34.1364
15.0056 0 14.4118
-23.7024 0 57.3254
-22.734 0 2.93197
6.19438 0 3.59593
13.0039 0 120.414
91.1545 0 66.1153
6.10773 0 -11.5537
41.0477 0 17.6347
0.745235 0 0.139632
75.7934 0 -31.5434
0.708537 0 -1.19845
8.7279 0 -32.6882
-23.3907 0 57.5982
-28.2172 0 -13.1435
-26.494 0 2.59261
40.4397 0 3.82875
-20.1876 0 -5.92583
10.5725 0 -63.5093
36.1021 0 23.0112
9.06216 0 5.19947
-18.5189 0 -3.37511
-6.39341 0 -1.85963
-24.5986 0 -13.4303
-24.5596 0 4.2599
-6.42353 0 -2.42537
-15.0915 0 -23.0125
-0.100369 0 -9.46872
0 0 0
17.6996 0 -6.81571
-8.56502 0 -44.1111
-4.4712 0 -9.98725
29.4042 0 1.4825
4.42924 0 13.1976
-37.3142 0 -68.2097
-27.5963 0 -19.0003
-57.1795 0 -28.5804
46.023 0 32.6166
7.3205 0 -4.19901
-9.98183 0 7.09964
22.7218 0 5.89164
-5.95429 0 -8.71076
-31.7518 0 -22.2324
0.688388 0 9.4944
41.8482 0 -96.0199
13.2762 0 27.2042
24.311 0 14.6018
-45.1793 0 39.3709
3.8576 0 0.338484
43.5301 0 -83.2733
3.2537 0 31.0184
-10.7633 0 -4.97411
-78.3992 0 7.98419
10.3323 0 -43.6596
-21.1376 0 3.05349
4.68173 0 0.249776