# vtk DataFile Version 3.0
SiWiRVisFile
ASCII
DATASET UNSTRUCTURED_GRID
POINTS 1600 DOUBLE
75.2714 100 71.5001
73.1105 100 71.7499
74.3788 100 72.3054
76.3609 100 71.9246
77.3205 100 72.6051
78.4308 100 73.1301
79.4059 100 72.623
80.4163 100 73.0823
81.3992 100 73.869
80.5603 100 71.9298
93.9681 100 61.0339
92.7602 100 61.1269
93.2435 100 62.211
91.693 100 60.5715
80.1423 100 62.9058
88.8655 100 55.7331
91.476 100 53.3076
88.8667 100 51.2274
83.4729 100 42.0731
94.226 100 46.527
108.334 100 19.1447
107.734 100 18.0091
107.323 100 16.9879
108.503 100 15.9244
106.784 100 20.4403
111.795 100 19.3923
110.828 100 10.6277
116.319 100 11.6564
109.961 100 14.2944
110.134 100 12.9851
111.615 100 12.3509
112.719 100 12.1015
110.635 100 11.8755
113.805 100 11.8701
114.599 100 16.0708
115.842 100 20.5923
115.966 100 15.3728
115.361 100 18.7147
114.257 100 18.8296
114.921 100 19.7441
133.869 100 48.614
141.019 100 42.0732
131.994 100 50.6737
133.607 100 52.0938
135.611 100 50.8518
135.326 100 65.6371
133.688 100 61.1822
133.326 100 63.434
132.551 100 60.8368
132.632 100 62.0272
143.45 100 72.2185
142.097 100 73.7245
143.166 100 73.261
144.363 100 72.7982
146.324 100 73.0398
147.264 100 72.5205
148.442 100 72.0128
150.922 100 72.4418
152.024 100 72.0388
149.921 100 71.7361
72.3676 100 72.4489
73.4075 100 72.9091
75.4141 100 72.7126
76.4649 100 73.4495
77.5512 100 73.8746
79.5661 100 73.8164
80.465 100 74.4138
81.5552 100 74.9081
82.5088 100 74.2747
83.6621 100 74.7695
84.6829 100 74.3282
92.6759 100 59.9357
91.7121 100 61.6508
91.4847 100 57.8091
89.528 100 54.7835
91.0473 100 58.7974
91.1531 100 52.2755
90.1824 100 51.7984
91.8928 100 50.8532
95.6805 100 48.0308
107.012 100 19.3291
94.6838 100 27.9272
107.77 100 33.5891
108.446 100 17.0549
108.867 100 18.3012
112.46 100 18.5119
113.383 100 17.4643
112.216 100 17.236
105.471 100 4.54536
111.158 100 13.3697
112.559 100 13.1822
119.637 100 4.65131
113.713 100 15.5025
115.921 100 14.2219
115.748 100 17.6689
115.58 100 16.3901
114.234 100 14.025
119.166 100 33.8577
129.86 100 27.8501
116.115 100 19.5384
128.394 100 48.3903
130.276 100 48.3815
133.379 100 50.0059
135.072 100 51.8494
133.395 100 60.0901
133.441 100 54.2231
132.168 100 56.7559
133.835 100 62.3435
131.449 100 60.6849
139.931 100 74.468
141.02 100 74.4945
141.953 100 74.916
143.028 100 74.3868
144.133 100 73.9172
145.204 100 73.4959
147.187 100 73.6706
148.162 100 73.1232
149.32 100 72.6482
151.672 100 73.1069
152.997 100 72.4998
72.5187 100 73.6226
73.5363 100 73.9783
74.4163 100 73.3922
75.4022 100 73.9589
76.6067 100 74.5121
78.5963 100 74.2316
79.3594 100 75.0068
80.4912 100 75.4691
81.3528 100 76.1321
82.6561 100 75.4757
84.7884 100 75.4066
83.484 100 77.0334
85.6232 100 76.028
92.3152 100 58.8811
90.3219 100 57.8112
92.7215 100 55.5406
92.7344 100 53.2154
92.3924 100 52.067
94.3705 100 49.3534
94.5253 100 47.6532
95.4903 100 46.9636
104.706 100 34.2507
106.614 100 34.1808
106.761 100 35.6526
93.8184 100 31.3086
107.421 100 34.811
107.41 100 32.2983
106.596 100 33.1145
111.865 100 14.2341
112.335 100 15.2368
113.081 100 14.1913
113.551 100 12.9138
121.602 100 34.5536
115.501 100 30.3824
118.07 100 33.4635
120.455 100 34.5101
118.992 100 35.045
120.026 100 35.445
121.11 100 35.48
127.508 100 47.4043
134.427 100 49.8552
131.145 100 50.0055
134.335 100 50.9841
133.214 100 51.0253
132.419 100 54.5544
132.436 100 55.6077
132.262 100 59.8088
139.526 100 75.5337
139.947 100 76.5195
140.607 100 75.5032
141.664 100 76.0381
142.93 100 75.4153
144.042 100 74.9574
145.04 100 74.6677
146.186 100 74.1003
148.208 100 74.2921
149.191 100 73.7584
150.191 100 73.3386
151.256 100 74.2232
152.551 100 73.8708
72.6252 100 74.6817
73.6262 100 75.1679
74.566 100 74.5774
75.647 100 75.047
77.5962 100 74.9614
78.4785 100 75.6647
79.5733 100 76.0519
80.4795 100 76.7595
82.3659 100 76.6282
83.6698 100 75.8202
83.4095 100 78.1601
84.5294 100 76.479
86.1239 100 74.9819
92.1436 100 56.9192
90.8854 100 56.7621
89.7213 100 56.722
92.4313 100 54.3582
91.2112 100 54.7387
93.58 100 52.5289
93.1537 100 51.3039
93.2787 100 48.0314
96.4865 100 47.2991
105.615 100 33.6066
104.123 100 37.5027
105.79 100 34.9545
105.812 100 36.3984
108.23 100 36.8333
109.57 100 36.221
108.511 100 32.8183
112.85 100 16.2116
114.868 100 14.9495
112.297 100 28.9346
115.935 100 36.2348
116.969 100 35.5699
118.102 100 35.7503
120.369 100 36.484
119.15 100 36.1881
119.123 100 32.5562
127.323 100 48.448
129.988 100 50.423
130.6 100 51.3148
132.763 100 53.3104
131.45 100 53.9798
131.167 100 55.1121
131.234 100 56.2219
132.892 100 58.9019
132.001 100 58.083
138.69 100 74.4081
139.278 100 77.6476
140.947 100 76.8541
142.02 100 77.1164
143.069 100 76.6399
143.973 100 76.1342
145.019 100 75.8525
145.998 100 75.3398
147.166 100 74.8376
149.205 100 74.9704
150.277 100 74.5931
151.199 100 75.3926
152.179 100 74.9248
72.6078 100 75.8006
73.6709 100 76.2525
74.7777 100 75.755
76.6419 100 75.5649
77.5978 100 76.1978
78.5937 100 76.7613
79.4104 100 77.4735
80.5871 100 78.0067
81.4325 100 77.229
82.4563 100 77.7061
83.5539 100 79.3515
86.6156 100 77.2204
86.9964 100 76.1271
94.5194 100 54.7848
91.5967 100 55.7302
90.4538 100 55.6143
95.1157 100 53.6771
94.6353 100 52.6895
94.0089 100 50.5043
95.4794 100 51.3649
95.1546 100 50.2186
101.955 100 43.3955
105.133 100 37.137
107.325 100 37.7384
107.227 100 36.6837
108.288 100 38.0398
109.284 100 37.22
110.436 100 37.249
107.984 100 35.735
110.73 100 18.8333
109.594 100 19.3358
117.018 100 33.1372
112.818 100 34.6743
115.021 100 36.7072
116.987 100 36.7508
117.727 100 34.7205
118.436 100 37.0668
118.314 100 38.0916
123.786 100 43.9465
129.495 100 47.4165
128.932 100 49.2954
129.506 100 51.5389
132.475 100 51.7536
130.405 100 53.8225
129.301 100 53.8641
130.869 100 58.4847
131.055 100 57.4255
138.813 100 76.4465
139.003 100 78.9119
141.097 100 80.1159
141.498 100 78.076
142.91 100 77.7936
143.925 100 77.4609
144.896 100 77.0578
145.958 100 76.5643
147.076 100 75.8591
148.131 100 75.4321
150.056 100 75.7703
150.804 100 76.5825
152.06 100 76.1979
72.7468 100 76.8259
73.8137 100 77.3625
74.721 100 76.8724
75.7821 100 76.228
76.7268 100 76.7952
77.78 100 77.5437
78.4168 100 78.5199
79.542 100 78.5413
80.7199 100 79.1484
81.6032 100 78.4121
82.5318 100 78.9272
84.3826 100 77.5742
86.3199 100 78.4071
85.8896 100 73.7481
89.1212 100 75.4718
93.5028 100 54.485
95.7894 100 54.743
96.909 100 54.8752
96.1791 100 53.5092
94.3321 100 51.6117
96.3057 100 50.3112
97.2123 100 48.4991
102.596 100 42.2705
103.336 100 40.8172
106.364 100 37.3237
106.351 100 38.5221
107.759 100 39.7897
109.691 100 38.4776
111.433 100 37.9021
110.551 100 35.6729
115.067 100 35.5975
113.883 100 35.259
115.934 100 37.2868
115.087 100 38.0481
116.992 100 37.8258
119.423 100 37.3572
119.531 100 38.4032
124.554 100 42.5875
126.896 100 49.4241
127.909 100 49.4828
128.793 100 50.4217
131.793 100 52.848
128.466 100 54.5319
129.057 100 55.4242
129.995 100 54.9462
138.492 100 75.4137
141.949 100 69.5911
138.705 100 80.3436
140.387 100 78.3129
142.739 100 78.8692
143.849 100 78.6235
144.836 100 79.2778
144.866 100 78.0984
145.843 100 77.6617
146.893 100 77.0078
147.957 100 76.555
149.033 100 76.1918
149.835 100 76.93
150.753 100 77.6775
151.722 100 77.1739
71.2675 100 77.1036
72.808 100 77.9161
74.8037 100 77.8989
75.7893 100 77.4354
76.7985 100 77.9458
77.0316 100 80.1461
77.9435 100 79.607
79.7952 100 79.7656
80.8157 100 80.2742
81.7659 100 79.7862
86.4234 100 79.494
85.4542 100 77.4095
87.334 100 80.0898
87.5592 100 75.1968
93.8299 100 55.6194
94.001 100 53.5403
95.2464 100 55.7748
98.1219 100 54.5175
95.686 100 52.5918
96.607 100 51.7158
95.5866 100 49.301
99.8637 100 49.2181
103.621 100 42.5852
105.175 100 38.261
110.438 100 42.012
108.618 100 39.1092
104.124 100 43.8224
109.525 100 39.6448
103.995 100 44.9329
105.519 100 43.5295
120.571 100 44.4362
117.623 100 44.3739
115.468 100 39.3081
117.401 100 43.2853
117.232 100 40.8497
116.079 100 38.4936
117.617 100 38.8666
121.688 100 44.2133
123.857 100 45.1404
127.642 100 50.5305
128.452 100 51.4973
129.772 100 52.5395
127.986 100 53.5732
128.046 100 55.6301
130.097 100 56.1142
129.962 100 57.1976
137.528 100 74.4818
131.376 100 75.8194
139.893 100 79.5394
142.662 100 79.9344
143.729 100 79.8611
144.735 100 80.3625
145.834 100 79.6417
147.087 100 78.6688
147.933 100 79.3622
147.825 100 77.7703
148.722 100 77.3581
149.696 100 78.0002
151.865 100 78.2627
152.958 100 77.0093
71.5395 100 78.203
72.8254 100 79.0378
73.6975 100 78.4207
74.7696 100 79.2613
75.9164 100 78.5965
76.0225 100 79.6834
77.0208 100 79.0059
78.7291 100 80.4856
79.9795 100 80.972
81.173 100 81.252
82.4703 100 81.0222
82.0246 100 82.1355
85.0168 100 78.4461
84.7787 100 79.6966
83.0933 100 82.2122
90.1526 100 77.7418
94.4908 100 58.162
96.3867 100 55.7612
98.4473 100 53.3844
97.3834 100 53.5936
97.3427 100 52.4535
97.3834 100 50.8141
103.006 100 43.6174
104.504 100 39.0753
107.4 100 38.864
109.558 100 40.768
106.609 100 39.805
103.368 100 46.3405
105.51 100 45.6023
107.589 100 46.3803
119.294 100 44.0214
120.806 100 45.5268
121.721 100 46.2497
118.275 100 40.9877
117.827 100 41.9872
117.838 100 39.9382
118.719 100 39.1191
122.686 100 44.1529
126.051 100 50.105
128.736 100 52.8688
127.652 100 52.3571
126.61 100 52.0342
126.936 100 55.3897
129.02 100 56.4924
130.835 100 74.701
141.705 100 82.18
140.956 100 81.3052
139.957 100 80.6915
142.208 100 81.1311
142.758 100 82.0728
143.522 100 81.0386
145.739 100 80.7647
146.783 100 81.067
146.91 100 79.8144
149.027 100 79.8712
148.807 100 78.5048
149.821 100 79.2221
150.892 100 78.8414
151.885 100 79.3829
152.788 100 78.7438
71.2277 100 79.5396
72.3584 100 80.0936
73.6948 100 79.6921
74.7794 100 80.485
76.0272 100 82.2691
73.2944 100 82.823
76.0042 100 80.8369
77.8352 100 81.0659
79.0115 100 81.5309
78.1301 100 82.2109
79.7299 100 82.3659
80.5539 100 83.3726
80.8732 100 82.3198
81.5918 100 83.3239
83.5484 100 80.6604
87.5326 100 77.9971
96.1527 100 58.0484
95.9253 100 56.7724
99.5012 100 53.9648
99.7352 100 51.3335
97.6342 100 49.6912
[...]
POINT_DATA 1600
SCALARS mass double
LOOKUP_TABLE default
1
1
1
1
1
1
1
1
1
1
1
1
1
1
1
1
1
1
1
1
1
1
1
1
1
1
1
1
1
1
1
1
1
1
1
1
1
1
1
1
1
1
1
1
1
1
1
1
1
1
1
1
1
1
1
1
1
1
1
1
1
1
1
1
1
1
1
1
1
1
1
1
1
1
1
1
1
1
1
1
1
1
1
1
1
1
1
1
1
1
1
1
1
1
1
1
1
1
1
1
1
1
1
1
1
1
1
1
1
1
1
1
1
1
1
1
1
1
1
1
1
1
1
1
1
1
1
1
1
1
1
1
1
1
1
1
1
1
1
1
1
1
1
1
1
1
1
1
1
1
1
1
1
1
1
1
1
1
1
1
1
1
1
1
1
1
1
1
1
1
1
1
1
1
1
1
1
1
1
1
1
1
1
1
1
1
1
1
1
1
1
1
1
1
1
1
1
1
1
1
1
1
1
1
1
1
1
1
1
1
1
1
1
1
1
1
1
1
1
1
1
1
1
1
1
1
1
1
1
1
1
1
1
1
1
1
1
1
1
1
1
1
1
1
1
1
1
1
1
1
1
1
1
1
1
1
1
1
1
1
1
1
1
1
1
1
1
1
1
1
1
1
1
1
1
1
1
1
1
1
1
1
1
1
1
1
1
1
1
1
1
1
1
1
1
1
1
1
1
1
1
1
1
1
1
1
1
1
1
1
1
1
1
1
1
1
1
1
1
1
1
1
1
1
1
1
1
1
1
1
1
1
1
1
1
1
1
1
1
1
1
1
1
1
1
1
1
1
1
1
1
1
1
1
1
1
1
1
1
1
1
1
1
1
1
1
1
1
1
1
1
1
1
1
1
1
1
1
1
1
1
1
1
1
1
1
1
1
1
1
1
1
1
1
1
1
1
1
1
1
1
1
1
1
1
1
1
1
1
1
1
1
1
1
1
1
1
1
1
1
1
1
1
1
1
1
1
1
1
1
1
1
1
1
1
1
1
1
1
1
1
1
1
1
1
1
1
1
1
1
1
1
1
1
1
1
1
1
1
1
1
1
1
1
1
1
1
1
1
1
1
1
1
1
1
1
1
1
1
1
1
1
1
1
1
1
1
1
1
1
1
1
1
1
1
1
1
1
1
1
1
1
1
1
1
1
1
1
1
1
1
1
1
1
1
1
1
1
1
1
1
1
1
1
1
1
1
1
1
1
1
1
1
1
1
1
1
1
1
1
1
1
1
1
1
1
1
1
1
1
1
1
1
1
1
1
1
1
1
1
1
1
1
1
1
1
1
1
1
1
1
1
1
1
1
1
1
1
1
1
1
1
1
1
1
1
1
1
1
1
1
1
1
1
1
1
1
1
1
1
1
1
1
1
1
1
1
1
1
1
1
1
1
1
1
1
1
1
1
1
1
1
1
1
1
1
1
1
1
1
1
1
1
1
1
1
1
1
1
1
1
1
1
1
1
1
1
1
1
1
1
1
1
1
1
1
1
1
1
1
1
1
1
1
1
1
1
1
1
1
1
1
1
1
1
1
1
1
1
1
1
1
1
1
1
1
1
1
1
1
1
1
1
1
1
1
1
1
1
1
1
1
1
1
1
1
1
1
1
1
1
1
1
1
1
1
1
1
1
1
1
1
1
1
1
1
1
1
1
1
1
1
1
1
1
1
1
1
1
1
1
1
1
1
1
1
1
1
1
1
1
1
1
1
1
1
1
1
1
1
1
1
1
1
1
1
1
1
1
1
1
1
1
1
1
1
1
1
1
1
1
1
1
1
1
1
1
1
1
1
1
1
1
1
1
1
1
1
1
1
1
1
1
1
1
1
1
1
1
1
1
1
1
1
1
1
1
1
1
1
1
1
1
1
1
1
1
1
1
1
1
1
1
1
1
1
1
1
1
1
1
1
1
1
1
1
1
1
1
1
1
1
1
1
1
1
1
1
1
1
1
1
1
1
1
1
1
1
1
1
1
1
1
1
1
1
1
1
1
1
1
1
1
1
1
1
1
1
1
1
1
1
1
1
1
1
1
1
1
1
1
1
1
1
1
1
1
1
1
1
1
1
1
1
1
1
1
1
1
1
1
1
1
1
1
1
1
1
1
1
1
1
1
1
1
1
1
1
1
1
1
1
1
1
1
1
1
1
1
1
1
1
1
1
1
1
1
1
1
1
1
1
1
1
1
1
1
1
1
1
1
1
1
1
1
1
1
1
1
1
1
1
1
1
1
1
1
1
1
1
1
1
1
1
1
1
1
1
1
1
1
1
1
1
1
1
1
1
1
1
1
1
1
1
1
1
1
1
1
1
1
1
1
1
1
1
1
1
1
1
1
1
1
1
1
1
1
1
1
1
1
1
1
1
1
1
1
1
1
1
1
1
1
1
1
1
1
1
1
1
1
1
1
1
1
1
1
1
1
1
1
1
1
1
1
1
1
1
1
1
1
1
1
1
1
1
1
1
1
1
1
1
1
1
1
1
1
1
1
1
1
1
1
1
1
1
1
1
1
1
1
1
1
1
1
1
1
1
1
1
1
1
1
1
1
1
1
1
1
1
1
1
1
1
1
1
1
1
1
1
1
1
1
1
1
1
1
1
1
1
1
1
1
1
1
1
1
1
1
1
1
1
1
1
1
1
1
1
1
1
1
1
1
1
1
1
1
1
1
1
1
1
1
1
1
1
1
1
1
1
1
1
1
1
1
1
1
1
1
1
1
1
1
1
1
1
1
1
1
1
1
1
1
1
1
1
1
1
1
1
1
1
1
1
1
1
1
1
1
1
1
1
1
1
1
1
1
1
1
1
1
1
1
1
1
1
1
1
1
1
1
1
1
1
1
1
1
1
1
1
1
1
1
1
1
1
1
1
1
1
1
1
1
1
1
1
1
1
1
1
1
1
1
1
1
1
1
1
1
1
1
1
1
1
1
1
1
1
1
1
1
1
1
1
1
1
1
1
1
1
1
1
1
1
1
1
1
1
1
1
1
1
1
1
1
1
1
1
1
1
1
1
1
1
1
1
1
1
1
1
1
1
1
1
1
1
1
1
1
1
1
1
1
1
1
1
1
1
1
1
1
1
1
1
1
1
1
1
1
1
1
1
1
1
1
1
1
1
1
1
1
1
1
1
1
1
1
1
1
1
1
1
1
1
1
1
1
1
1
1
1
1
1
1
1
1
1
1
1
1
1
1
1
1
1
1
1
1
1
1
1
1
1
1
1
1
1
1
1
1
1
1
1
1
1
1
1
1
1
1
1
1
1
1
1
1
1
1
1
1
1
1
1
1
1
1
1
1
1
1
1
1
1
1
1
1
1
1
1
1
1
1
1
1
1
1
1
1
1
1
1
1
1
1
1
1
1
1
1
1
1
1
1
1
1
1
1
1
1
1
1
1
1
1
1
1
1
1
1
1
1
1
1
1
1
1
1
1
1
1
1
1
1
1
1
1
1
1
1
1
1
1
1
1
1
1
1
1
1
1
1
1
1
1
1
1
1
1
1
1
1
1
1
1
1
1
1
1
1
1
1
1
1
1
1
1
1
1
1
1
1
1
1
1
1
1
1
1
1
1
1
1
1
1
1
1
1
1
1
1
1
1
1
1
1
1
1
1
1
1
VECTORS force double
0.657975 0 23.8832
70.645 0 -39.5659
-7.51389 0 -20.679
-10.0174 0 16.2151
-3.756 0 20.3815
-14.6257 0 7.37985
12.4743 0 3.41362
13.0299 0 13.4447
6.38066 0 -51.7694
-9.71716 0 14.2633
-17.7893 0 5.86032
-3.1434 0 -3.71179
-3.16771 0 -18.7485
17.8245 0 -20.8748
0 0 0
15.7674 0 2.20265
23.8575 0 23.7122
6.79194 0 2.94785
0 0 0
11.4128 0 13.5882
-71.5265 0 98.8183
20.7653 0 15.8198
1.4271 0 -8.7253
-2.96942 0 5.52559
1.25889 0 -3.51427
-14.0829 0 -0.603377
-1.12731 0 13.3022
0 0 0
6.70207 0 -13.625
-2.56543 0 -5.24215
21.6817 0 13.3602
-0.577596 0 -2.86674
-12.5267 0 -2.6282
7.51216 0 -20.1353
-22.9604 0 -5.74207
-12.6111 0 3.51439
-9.56448 0 -20.1464
2.65413 0 0.0581047
-4.48414 0 -1.54211
18.7263 0 4.97956
1.78778 0 15.0972
0 0 0
29.4395 0 24.4007
-3.72419 0 -11.6359
-17.3247 0 0.710146
0 0 0
-18.1682 0 9.20362
2.82647 0 -14.5048
22.8445 0 38.5922
19.3681 0 -12.2265
-9.42928 0 -23.6973
3.34091 0 17.9739
6.07888 0 26.9798
-5.08671 0 13.1235
-45.7702 0 -23.1151
15.2195 0 -15.7785
-18.8698 0 1.96478
-93.3235 0 -76.3875
-27.6359 0 -3.25149
11.4088 0 2.94777
-52.4085 0 68.4104
-7.0464 0 -30.5368
10.7593 0 8.57997
-6.1408 0 -32.5311
-14.5261 0 -29.9502
7.77309 0 -28.4609
-2.75564 0 -15.8759
-0.924337 0 57.5741
-1.56082 0 17.2897
-14.0195 0 -30.3917
13.1099 0 -16.907
-5.1436 0 20.0492
12.4548 0 14.8081
-4.06357 0 -15.4437
8.36473 0 15.2329
-1.10633 0 7.84445
26.0124 0 -13.3105
-20.325 0 -10.3146
11.698 0 17.7486
-17.0711 0 35.0984
12.8488 0 -4.01565
0 0 0
-45.4021 0 21.5925
-3.24192 0 16.8365
61.7928 0 -109.17
7.02977 0 -22.2176
-15.933 0 -3.38652
18.1706 0 3.10889
0 0 0
12.3245 0 2.58435
-88.1179 0 35.31
0 0 0
-31.0741 0 -38.2883
-12.2855 0 13.461
-2.53494 0 -12.1095
53.8142 0 39.6514
-14.5772 0 -4.10903
-5.57399 0 3.98634
0 0 0
-7.9201 0 -11.2416
-3.75082 0 -35.1557
-11.2169 0 -5.17082
-19.8183 0 -52.1898
-7.95198 0 -5.24923
-14.2132 0 -8.61677
15.0296 0 -8.443
7.90708 0 16.1796
-18.1348 0 -2.77769
6.61962 0 -7.72775
-21.4074 0 15.8515
-40.4169 0 -43.8235
64.113 0 21.3157
10.8695 0 -61.7443
-0.00355799 0 -48.8338
17.2623 0 20.6719
40.6052 0 19.5336
37.056 0 15.8481
-4.56472 0 20.9801
87.1445 0 89.9273
8.88626 0 18.4185
-16.3642 0 -47.6144
-1.57032 0 64.5211
43.7612 0 2.06914
55.7008 0 -46.3997
-9.75572 0 -30.9953
-46.6788 0 22.8172
31.9227 0 -33.5686
0.6051 0 20.591
35.4083 0 -25.6742
-33.1942 0 -16.2979
-50.6281 0 -24.8508
-46.7923 0 -35.2928
44.7145 0 40.3133
-19.1043 0 -9.93329
15.4212 0 -11.1324
-8.44312 0 -16.0719
-13.661 0 14.7356
-17.113 0 24.6884
14.122 0 12.2741
7.84307 0 -3.79836
-59.398 0 -25.4179
9.25663 0 7.79054
-55.1309 0 -19.2193
-20.8541 0 20.516
0 0 0
64.0756 0 0.820561
7.93311 0 20.404
24.1235 0 -29.6637
16.6401 0 -15.2196
14.1623 0 -9.51524
-5.29686 0 2.92056
56.8127 0 16.5476
12.594 0 -37.0589
0 0 0
19.0009 0 12.0352
27.888 0 -54.6883
-10.8476 0 -7.89088
-48.8049 0 55.4199
-17.9329 0 40.9035
13.8095 0 -23.0374
30.8982 0 -4.84396
-29.1534 0 -0.6534
1.05955 0 1.06545
22 0 21.2778
-28.9632 0 -40.4653
-18.7569 0 45.9171
-10.3139 0 -12.3719
19.7571 0 -19.2265
-28.4009 0 8.22016
15.4709 0 21.4867
12.7817 0 -23.0908
16.3115 0 82.2101
-66.6154 0 78.7407
63.0747 0 -20.4233
-22.3274 0 51.1733
-10.0194 0 1.46623
-17.4328 0 17.8346
33.2613 0 4.89605
53.7536 0 -21.7924
-14.9621 0 -11.5472
8.08928 0 22.8653
-0.352359 0 -11.5157
-39.3349 0 28.134
-13.6993 0 11.4697
23.6894 0 26.0959
55.2411 0 -41.8302
-17.4089 0 48.0522
-57.8105 0 2.3224
16.2424 0 -28.0934
15.3832 0 49.3926
32.6511 0 27.5991
19.3319 0 18.8014
-6.47956 0 3.35314
-12.299 0 -20.0999
6.84161 0 -1.23826
14.0788 0 -7.23277
-28.4195 0 -0.254477
-3.08186 0 -30.3774
-27.1981 0 -42.7483
26.6438 0 -8.14846
13.7945 0 -3.06579
51.5423 0 11.655
2.58138 0 15.4805
-9.5157 0 17.691
4.05742 0 -3.82927
81.6291 0 -110.377
85.8202 0 29.656
12.2182 0 -41.6278
5.52512 0 -22.6311
1.97572 0 24.2244
6.89837 0 11.5197
0 0 0
95.1946 0 -59.5508
-2.00569 0 15.543
2.77691 0 20.9327
-11.3554 0 4.22542
12.4416 0 3.31976
-6.52105 0 17.3668
-10.512 0 18.7612
-18.2705 0 -10.6154
16.0961 0 10.7472
15.5231 0 17.2886
40.9105 0 3.80897
1.36031 0 -13.0056
-20.1108 0 0.529711
-1.76276 0 -1.62958
-6.28888 0 -0.881552
23.7109 0 -62.6584
-1.61071 0 0.145513
19.7858 0 25.8582
16.1165 0 -15.3384
-54.4586 0 31.7687
33.5466 0 -22.9134
9.38143 0 -0.572779
19.7513 0 -7.4332
-2.47344 0 -85.7911
-9.2394 0 1.96091
-47.3287 0 19.0073
-30.0341 0 12.5756
3.91044 0 1.71965
8.72029 0 -60.0473
27.4497 0 5.06031
-25.4042 0 -12.9547
20.2606 0 42.9861
-27.5742 0 10.7352
-7.83571 0 -10.6442
23.1264 0 -14.744
-23.0372 0 -13.9423
23.4719 0 39.2131
-19.3869 0 2.39559
14.6718 0 3.04776
-3.94613 0 9.09743
-11.3508 0 16.2983
62.555 0 -14.8378
8.65241 0 43.2764
-2.73254 0 8.06835
-12.2836 0 21.5964
7.62394 0 -27.2134
10.8015 0 1.46779
1.78688 0 0.746579
-45.5812 0 92.948
-12.7545 0 -12.6726
-40.2706 0 78.6135
-51.5237 0 22.5511
-74.7913 0 -70.47
98.5301 0 19.7027
-15.2365 0 69.041
-8.32729 0 0.0784531
-7.9098 0 25.5144
0.0532539 0 9.00033
-7.2732 0 -16.4988
-5.15533 0 0.216149
10.205 0 5.76097
-72.8461 0 35.0121
-7.19891 0 -31.6274
9.66579 0 -16.2177
-64.7434 0 -91.0569
33.6605 0 15.2882
2.30092 0 7.78141
1.19314 0 14.7139
75.1982 0 28.9142
15.6884 0 -70.2335
-39.8734 0 45.0784
-32.2916 0 1.89067
10.479 0 -15.8808
6.2808 0 13.9979
19.8899 0 -37.7092
15.2266 0 22.4754
0.0426297 0 -28.8709
-12.798 0 13.566
-0.747697 0 3.43201
-17.3757 0 -3.45552
-16.8198 0 0.65919
39.1189 0 -90.0486
-59.7336 0 -51.3025
-22.17 0 78.6738
9.56906 0 1.49715
4.99307 0 -16.8129
70.1193 0 -47.6681
10.3491 0 -65.4732
1.46709 0 61.8197
-66.0533 0 0.511087
60.5683 0 -102.022
-24.6009 0 14.2026
-17.2915 0 26.5111
26.509 0 -19.9388
-9.63497 0 -1.66632
21.1278 0 32.5296
8.79432 0 -8.82047
-25.659 0 -7.38905
21.9729 0 0.480348
5.46897 0 15.923
-5.95773 0 -33.3079
-7.34169 0 17.6532
-25.2207 0 -73.7147
-30.1933 0 27.1476
-12.2675 0 -5.09503
54.7738 0 -67.9331
55.8518 0 53.0971
-7.21152 0 -4.17872
-3.22999 0 5.99543
-6.09245 0 4.8257
-23.1401 0 7.49695
-3.21969 0 -7.09292
-62.2941 0 23.9931
12.2378 0 -30.1831
37.7062 0 131.008
-16.9587 0 -3.40064
-10.9085 0 -5.67802
-0.841212 0 5.23489
-25.8443 0 -17.7282
2.6078 0 -0.902997
30.6371 0 62.6415
-5.20241 0 -9.4966
6.19647 0 27.5284
56.4031 0 -33.7237
-11.3756 0 -6.60488
-2.43031 0 4.13327
-81.5362 0 22.9131
46.9513 0 -11.3436
1.13256 0 -0.183793
-18.0288 0 -7.8375
-23.4508 0 24.8605
51.1819 0 3.74141
41.0176 0 -26.8646
-79.9355 0 49.737
0 0 0
11.7446 0 6.0776
-13.3713 0 0.387355
4.77466 0 -13.4798
-0.295901 0 0.419446
-45.4104 0 -32.5458
-31.6804 0 71.8983
33.9323 0 -7.07484
60.7117 0 29.0922
-6.63527 0 5.71325
-24.7526 0 -11.5537
-52.6289 0 13.3399
-1.97838 0 22.0126
8.08024 0 50.0812
9.39026 0 1.96755
-71.6728 0 -28.128
-9.07031 0 89.9553
7.1829 0 -14.8733
-26.3372 0 -16.3627
-27.2829 0 38.4555
45.2598 0 -9.38116
-10.1354 0 9.20786
-33.9136 0 -48.3175
19.5484 0 -21.4648
-17.1381 0 15.7424
24.4989 0 -12.0807
11.1916 0 20.3706
9.43171 0 -2.46913
-3.0649 0 2.94971
-9.93832 0 17.6913
1.14502 0 -9.79693
17.3836 0 -123.713
13.53 0 -58.8976
-49.2339 0 -44.2135
36.2441 0 -84.6186
5.57065 0 -2.70337
22.2637 0 21.0191
23.1448 0 -56.2877
-3.05294 0 -4.31637
-27.6889 0 -34.3047
1.13024 0 -7.48763
31.7857 0 9.59571
-39.68 0 -7.67077
-10.9657 0 9.33638
-2.60209 0 -13.0678
10.5511 0 8.03601
-52.0406 0 55.9468
3.36072 0 -12.0747
-39.0835 0 12.4122
68.3122 0 -75.0545
-42.1033 0 16.121
-145.935 0 -14.8683
-16.312 0 -6.54543
19.6294 0 8.69316
-47.9556 0 3.28866
29.8451 0 60.4128
-55.7993 0 16.432
-45.6845 0 -14.598
-2.3608 0 -27.5647
-5.05184 0 5.215
16.2269 0 7.72794
-22.3918 0 -9.17009
16.2023 0 12.52
-28.1931 0 44.7935
30.7002 0 -12.1412
-11.6172 0 -12.8009
10.6362 0 13.7312
-7.93831 0 -7.63325
33.3292 0 -30.0415
-140.641 0 60.883
161.592 0 -65.5396
57.4976 0 -8.38648
-56.9149 0 -21.9975
-23.7975 0 -2.10997
14.5984 0 6.09301
-39.5541 0 11.9009
102.943 0 61.9173
4.91894 0 -2.76795
-18.6358 0 -11.5605
-7.05197 0 9.73572
-14.8209 0 14.3028
29.2632 0 -41.3216
-7.65922 0 5.05583
25.9849 0 45.5881
-12.0911 0 12.1778
-35.9735 0 1.31102
16.9193 0 26.7403
-30.4997 0 -50.892
24.9725 0 1.5554
-14.4362 0 10.6482
-16.5188 0 -13.4744
-36.0785 0 49.5002
3.47855 0 16.1845
-24.8892 0 14.9611
35.6578 0 44.7337
-22.4237 0 2.58819
28.9582 0 2.52496
-36.5967 0 8.86542
-32.9787 0 -125.812
1.76557 0 2.16848
3.4573 0 -25.6207
-27.9125 0 12.1674
-3.03169 0 -10.0074
-4.70772 0 -7.17905
6.94764 0 22.3289
49.9711 0 23.5698
15.9655 0 -18.692
51.4187 0 -16.7106
-12.1846 0 7.02381
26.0089 0 -2.7043
-6.11385 0 32.2001
123.103 0 -1.0625
-31.8934 0 13.3144
29.6842 0 -51.5485
27.9812 0 10.6402
-20.5404 0 57.4386
-10.8095 0 7.23685
-7.91748 0 22.0807
45.9317 0 41.3949
-25.574 0 -12.2675
3.53268 0 -2.58837
-3.64575 0 2.30785
-9.37847 0 -16.5687
-22.7869 0 0.682768
-47.999 0 -14.4106
-10.1034 0 -62.2116
18.6433 0 -1.31487
-12.0398 0 -2.14839
-77.7504 0 46.0039
-74.7641 0 47.4402
59.0832 0 -50.4062
-4.86847 0 -9.31915
-18.2172 0 9.13023
47.6201 0 29.6069
16.5457 0 -4.45289
2.66857 0 -4.90246
17.5647 0 3.11924
1.64269 0 2.91854
-50.1079 0 17.166
14.1599 0 -8.86539
-25.4667 0 -19.8265
-10.433 0 11.8894
-9.66366 0 5.62036
-12.4103 0 2.55233
9.29442 0 15.9641
-74.1736 0 9.22824
9.50035 0 2.39915
40.8385 0 -12.8301
-0.633823 0 -9.41737
-7.40748 0 -5.76749
5.56339 0 -35.058
-7.1853 0 4.55629
-19.3424 0 -0.436063
-2.30399 0 -2.01426
-10.2236 0 -0.698617
8.48905 0 -3.55003
8.48673 0 22.7767
-4.578 0 2.2268
-15.3452 0 -7.94873
9.38198 0 45.2888
15.0898 0 19.7778
5.43974 0 -28.6961
-19.3821 0 18.5584
25.1312 0 -4.4708
3.52504 0 19.5847
14.0712 0 -3.02995
-55.978 0 -9.74045
-13.411 0 1.04292
-44.9527 0 23.5254
86.8613 0 1.53687
23.6842 0 3.27192
-1.13608 0 27.1209
-2.30697 0 -2.43668
56.8087 0 -27.944
-1.98976 0 -3.25722
8.12011 0 -8.0132
-14.3672 0 28.0495
-14.4192 0 -18.0481
20.2936 0 7.39049
14.6692 0 9.00616
-17.9927 0 -1.88034
17.6814 0 -25.4576
44.8914 0 -4.04976
51.6599 0 2.96791
27.4902 0 -13.5405
-6.02697 0 18.0191
10.4064 0 54.9408
-2.85904 0 -2.86071
-12.6473 0 -1.98772
4.88346 0 -31.2389
-19.1722 0 19.3541
-25.5263 0 -41.5158
59.8332 0 25.2547
-9.4838 0 -0.954747
12.6375 0 -12.7949
17.7505 0 8.26869
-7.79377 0 -3.54369
1.40033 0 13.0444
-25.8956 0 -65.1319
6.5204 0 -50.9958
-12.2548 0 33.4522
-34.5037 0 12.1213
-28.5009 0 -3.95661
123.504 0 55.7338
-36.3961 0 -42.6923
22.2192 0 -6.41122
-38.769 0 -110.35
-42.3869 0 0.183643
17.4573 0 -0.972349
-0.224729 0 -5.55365
12.973 0 7.07062
-58.9121 0 -18.9341
25.0081 0 -4.87268
13.7223 0 0.467765
-61.4488 0 111.996
12.9819 0 -7.44387
8.47689 0 -1.3674
-6.07854 0 -14.5217
-4.84667 0 -12.4655
1.4816 0 11.3642
-59.8403 0 -20.3931
7.36335 0 -15.6607
93.8557 0 8.36394
-14.543 0 -8.71429
4.21822 0 -7.59279
8.59618 0 -18.745
-39.7571 0 -27.8205
21.7197 0 29.9723
-11.5369 0 0.541923
6.12548 0 2.87908
-45.7298 0 5.84903
-14.3393 0 -39.0923
1.77206 0 -12.1586
-11.2866 0 12.4913
8.00769 0 8.12325
-7.33171 0 -5.55028
11.0465 0 -4.65297
26.7379 0 -18.4493
-14.7518 0 -10.7769
-19.6276 0 13.5024
19.1443 0 3.17964
-34.4219 0 7.32637
21.8988 0 63.5834
-25.0081 0 16.8001
-20.4992 0 -19.8662
40.4985 0 46.545
-38.2659 0 -32.4114
16.7781 0 42.8391
17.3739 0 3.02651
19.2236 0 2.95696
-8.54693 0 19.7678
-90.1345 0 -64.4528
72.7098 0 50.3195
-21.8007 0 -6.87181
-12.2106 0 -4.68596
-0.370461 0 2.25397
-5.22078 0 -15.5111
-9.02795 0 7.23433
8.58145 0 12.1626
5.77566 0 1.95873
-28.0187 0 -55.2327
24.4468 0 -24.3641
5.45302 0 4.96842
69.7728 0 -3.3371
20.08 0 39.662
14.6293 0 -6.87381
-38.1749 0 142.899
80.4005 0 -66.0252
1.73156 0 -1.89548
-7.09846 0 4.55229
-2.43768 0 5.22524
-10.7995 0 -2.34305
60.6127 0 101.811
-6.57039 0 30.7672
34.1836 0 -2.81002
12.5392 0 16.9114
-14.9143 0 -13.5644
17.4219 0 -0.548885
-19.4148 0 -1.8628
-74.2823 0 44.0814
-5.51408 0 7.96197
53.3843 0 10.7207
1.17396 0 2.32627
-33.5546 0 -8.73202
24.0002 0 -9.32848
3.05631 0 -6.93777
-2.6668 0 -4.6872
-98.7101 0 2.63818
4.52595 0 18.025
12.7171 0 -13.9607
2.41877 0 18.186
-1.14605 0 -12.0965
12.8528 0 -17.7106
10.6746 0 18.6779
20.3094 0 -12.991
2.25328 0 22.0927
79.8571 0 -31.2013
-18.3624 0 -17.2324
-1.34878 0 -0.584558
9.79855 0 -32.6066
-9.00279 0 14.0961
-10.7114 0 -8.25416
5.6534 0 -8.66255
9.40743 0 8.20525
-2.55553 0 2.58221
-58.9796 0 35.6649
64.9104 0 -60.6412
4.91187 0 4.609
-0.00360514 0 1.93444
-13.8459 0 -0.521629
13.7364 0 -0.395664
10.5158 0 8.21469
-19.8903 0 -2.301
33.2318 0 -12.3607
7.1699 0 -3.09287
47.8472 0 -113.492
7.2857 0 18.6331
33.9337 0 16.8042
-41.5537 0 -23.2917
-7.2296 0 -5.48954
2.12768 0 -0.0970858
-3.62185 0 0.923773
61.4337 0 -17.4671
-39.0988 0 45.037
-2.9505 0 0.891926
38.4473 0 -62.4408
-7.19288 0 34.1888
-10.1492 0 -9.15635
35.4428 0 11.8827
3.8003 0 2.72308
-3.65782 0 39.9858
15.4725 0 5.97218
18.9698 0 13.2194
-53.5328 0 -51.1899
-26.833 0 7.63161
23.9135 0 10.9114
-3.01553 0 -8.78147
6.99698 0 6.17962
-8.96826 0 20.9821
-63.7415 0 2.83651
-12.3585 0 -11.6725
-17.9067 0 15.5
53.9135 0 8.61277
-11.677 0 9.51748
25.3916 0 29.9561
13.6688 0 11.4226
20.0316 0 -15.9974
5.62888 0 23.7637
-1.59671 0 9.47771
-4.99821 0 -19.3327
-60.1618 0 -20.9148
27.982 0 38.3724
11.3219 0 -13.485
18.6969 0 20.7409
-11.7069 0 4.27325
-9.09774 0 7.19756
-10.6445 0 25.3431
-1.01332 0 2.5778
-10.6802 0 -7.50328
12.8268 0 39.4207
-44.0512 0 -45.6138
0.444709 0 5.89365
-1.33922 0 -4.76866
21.7736 0 9.11452
-1.20712 0 -34.9282
9.28848 0 -2.108
26.6903 0 21.0417
4.41289 0 14.8612
-5.83129 0 -39.7221
-3.83903 0 -10.7315
-14.8732 0 -14.0693
12.6985 0 10.4116
-2.12262 0 8.14709
-13.7527 0 12.6474
-20.8856 0 116.422
-26.2371 0 4.73876
-38.6449 0 -25.009
6.50551 0 17.4366
32.1223 0 -9.59647
-107.367 0 -77.289
-3.70121 0 -1.40107
-16.6774 0 -17.6662
-7.31955 0 13.6028
40.5473 0 -13.5337
5.03134 0 -3.99878
-14.1396 0 1.35296
-1.76434 0 2.25158
-16.2095 0 1.14965
-3.55071 0 -10.3215
-50.5771 0 -40.598
0.688172 0 -6.95633
-11.3494 0 0.593047
11.8974 0 -2.38103
-11.7852 0 0.726346
4.77684 0 9.81544
-29.6873 0 36.2628
-25.9183 0 -25.4213
1.11637 0 -30.3756
-3.5242 0 -11.162
36.4947 0 9.61133
-9.8185 0 20.9867
68.2454 0 -71.1231
14.4039 0 8.47757
-24.2122 0 -1.48644
12.5957 0 -3.56289
17.8657 0 -8.18681
0.139395 0 7.77778
12.1911 0 8.41121
6.91534 0 -2.04243
5.21888 0 7.05256
8.80752 0 -8.9927
16.0722 0 4.41489
23.8987 0 37.4923
94.0884 0 -1.99003
-9.35527 0 -29.6571
-91.5929 0 -46.5385
9.02437 0 5.55539
2.7018 0 -27.5481
10.253 0 -5.12007
23.5931 0 5.18055
2.63306 0 27.2069
-14.6545 0 -13.5494
-1.14011 0 -5.6576
-28.4842 0 29.615
22.1053 0 44.2821
-7.17893 0 2.33831
-2.77201 0 -7.30289
20.1749 0 9.67101
0.399963 0 4.00585
-8.42555 0 -6.25819
-12.5489 0 4.35049
44.1204 0 -45.6523
-23.6575 0 -5.63826
0.833286 0 31.0047
59.5695 0 0.0289347
15.905 0 13.8767
-15.4917 0 -19.2085
-7.21005 0 -18.8735
-14.7524 0 -7.53236
-8.20946 0 -40.0045
6.21292 0 4.3734
1.04661 0 13.2297
51.4976 0 107.276
-0.989145 0 -12.8316
-0.702624 0 0.851116
8.63627 0 -6.82372
-47.0896 0 34.5711
-5.30155 0 -11.6687
0.390983 0 2.58117
6.52461 0 -38.3582
1.7957 0 13.7355
0.732628 0 -3.56773
11.1528 0 -1.01837
-11.045 0 -3.04816
9.9184 0 10.689
13.1627 0 8.33676
15.2373 0 -11.0013
-46.7911 0 33.0532
78.1832 0 -52.9449
-14.7711 0 12.4612
-15.3452 0 6.93243
42.004 0 -123.808
-3.84744 0 19.5903
-10.2312 0 -11.1672
15.8922 0 3.97975
10.3855 0 18.8388
-5.00613 0 1.96299
-28.7683 0 -5.2911
-0.155334 0 3.94968
9.05047 0 -14.3719
68.0056 0 -77.0181
-17.2288 0 1.16538
0.180594 0 12.6087
-16.2137 0 12.5683
15.9263 0 29.0013
-67.4686 0 20.1141
-20.0856 0 11.8282
15.5601 0 -0.833999
-7.60479 0 10.4244
1.16393 0 -15.2733
-13.8499 0 19.9889
-14.8219 0 71.7159
35.9869 0 -67.3587
-22.8384 0 -43.2546
44.6268 0 -9.85428
-8.396 0 -34.4851
55.7271 0 18.8874
-33.5552 0 3.1556
-35.5936 0 24.6532
28.0456 0 17.729
-6.0636 0 -5.97588
-25.8838 0 40.7517
91.0637 0 -0.952
-137.473 0 -42.2775
-46.3792 0 6.97137
-34.3008 0 -2.02792
-7.20953 0 11.3515
48.6565 0 5.88042
46.5162 0 57.4174
-31.562 0 37.6351
-0.291993 0 0.688211
46.9834 0 8.83602
-3.33265 0 -7.27893
7.8996 0 -9.06367
11.4536 0 8.40895
25.391 0 23.9017
32.9037 0 4.25666
0.14822 0 1.16602
-44.2413 0 57.7745
-8.57309 0 10.913
-11.3803 0 -6.96231
-1.51112 0 -0.203534
-6.00645 0 -2.07707
-1.53931 0 -6.7269
-82.1389 0 -3.77311
61.9115 0 7.36361
-17.1166 0 -14.7014
10.4771 0 -14.5455
8.98949 0 -0.991092
-111.359 0 33.417
2.87149 0 -7.54748
0 0 0
14.0786 0 -8.42307
3.5242 0 11.162
-4.4127 0 -6.96355
-10.9425 0 3.44588
-25.3281 0 -16.7411
10.7971 0 -2.86819
26.6335 0 -5.12026
-26.3412 0 11.3623
-25.2496 0 -40.0557
-20.1131 0 -25.0245
-82.1425 0 11.7943
23.1179 0 6.5446
6.43742 0 5.24484
-14.5801 0 -22.5879
-0.0268305 0 0.23123
26.0424 0 -13.5325
-2.56828 0 -21.1688
49.6475 0 -2.69084
-3.50644 0 -8.70356
2.18001 0 -4.93176
18.1238 0 7.06755
20.776 0 -12.7775
-15.5712 0 -5.10978
-3.04268 0 91.8489
-16.5564 0 6.52651
10.2343 0 -107.458
42.7351 0 15.3912