# vtk DataFile Version 3.0
SiWiRVisFile
ASCII
DATASET UNSTRUCTURED_GRID
POINTS 1600 DOUBLE
77.0823 100 74.253
78.4768 100 74.8656
79.4866 100 75.3068
81.2895 100 74.8067
82.3127 100 75.1976
83.3506 100 75.2916
84.9073 100 75.2674
86.0433 100 75.5975
87.2038 100 75.9761
86.9014 100 74.8446
90.1087 100 75.6752
91.2968 100 75.2316
90.3676 100 74.6668
90.8065 100 73.2435
90.1238 100 72.4204
92.8305 100 68.6781
94.0125 100 68.478
96.0951 100 68.1949
94.824 100 65.8626
98.1773 100 67.4038
103.766 100 56.3716
103.462 100 58.8101
104.267 100 57.9434
106.042 100 57.2442
104.874 100 56.8471
107.481 100 56.6507
109.55 100 54.608
109.695 100 53.4261
110.655 100 54.2641
111.669 100 53.6171
112.823 100 53.617
113.838 100 54.264
114.798 100 53.4261
114.943 100 54.608
117.011 100 56.6508
119.618 100 56.8471
118.45 100 57.2442
120.225 100 57.9434
121.031 100 58.8101
120.726 100 56.3716
126.315 100 67.4038
129.668 100 65.8626
128.397 100 68.1948
130.48 100 68.4781
131.662 100 68.6781
134.369 100 72.4204
133.686 100 73.2435
134.125 100 74.6668
133.196 100 75.2316
134.384 100 75.6752
137.591 100 74.8446
137.289 100 75.9761
138.449 100 75.5975
139.585 100 75.2674
141.142 100 75.2916
142.18 100 75.1976
143.203 100 74.8067
145.006 100 75.3068
146.016 100 74.8656
147.41 100 74.253
77.4872 100 75.3316
78.4929 100 75.8775
80.5189 100 75.5724
81.5562 100 76.0238
82.7285 100 76.2442
84.0299 100 76.3367
85.1114 100 76.4054
86.2647 100 76.7537
87.3509 100 77.1048
88.4832 100 77.3762
89.5616 100 76.9415
91.7069 100 76.3247
91.4588 100 74.1053
92.0296 100 73.264
92.6851 100 72.2838
91.3677 100 72.3725
94.9094 100 69.0868
97.1116 100 67.7078
98.0458 100 69.004
99.9349 100 67.7667
103.32 100 57.3083
99.909 100 62.6142
104.313 100 63.4275
109.755 100 57.332
106.4 100 56.1575
107.314 100 58.0016
108.669 100 57.3183
109.287 100 56.3669
110.219 100 55.427
111.429 100 55.1978
113.064 100 55.198
114.273 100 55.427
115.206 100 56.3669
115.824 100 57.3183
117.179 100 58.0016
118.092 100 56.1575
114.737 100 57.332
120.179 100 63.4278
124.583 100 62.6142
121.173 100 57.3083
124.558 100 67.7666
126.447 100 69.004
127.381 100 67.7077
129.583 100 69.0869
133.125 100 72.3725
131.807 100 72.2839
132.463 100 73.264
133.034 100 74.1053
132.786 100 76.3247
134.931 100 76.9415
136.009 100 77.3762
137.142 100 77.1048
138.228 100 76.7537
139.381 100 76.4054
140.463 100 76.3367
141.764 100 76.2442
142.936 100 76.0238
143.973 100 75.5724
146 100 75.8775
147.005 100 75.3316
77.5754 100 76.5129
78.5674 100 77.0234
79.5821 100 76.4214
80.6461 100 76.7
81.7224 100 77.1753
83.3852 100 77.1527
84.5298 100 77.3268
85.5567 100 77.6278
86.6724 100 78.0021
87.7466 100 78.2245
89.2134 100 78.356
90.349 100 78.5402
91.3126 100 78.068
92.392 100 75.3528
93.8682 100 72.4084
94.5558 100 71.4767
94.732 100 70.3257
95.9393 100 69.5702
96.7918 100 68.9723
99.0302 100 68.3096
101.306 100 67.2753
103.376 100 64.0419
105.229 100 64.1191
106.22 100 63.5864
106.445 100 60.7318
107.601 100 63.1348
107.971 100 62.0573
106.52 100 62.5503
110.5 100 56.5256
111.64 100 56.3423
112.853 100 56.3424
113.992 100 56.5256
117.972 100 62.5498
116.52 100 62.0581
116.892 100 63.135
118.047 100 60.7316
118.273 100 63.5849
119.263 100 64.1192
121.117 100 64.0417
123.186 100 67.2752
125.462 100 68.3097
127.701 100 68.9724
128.553 100 69.5703
129.76 100 70.3257
129.937 100 71.4767
130.624 100 72.4086
132.1 100 75.3528
133.18 100 78.0679
134.143 100 78.5402
135.279 100 78.356
136.746 100 78.2245
137.82 100 78.0021
138.936 100 77.6278
139.963 100 77.3268
141.107 100 77.1527
142.77 100 77.1753
143.846 100 76.7
144.91 100 76.4214
145.925 100 77.0234
146.917 100 76.5129
77.6539 100 77.6156
78.7014 100 78.1181
79.5542 100 77.4456
80.599 100 77.8126
82.5781 100 77.8736
83.58 100 78.1627
84.767 100 78.4531
85.8645 100 78.8798
87.0642 100 79.0746
88.3502 100 79.1354
89.3753 100 79.4781
90.4083 100 79.7222
91.3756 100 79.1682
93.3277 100 74.5254
93.1576 100 73.2621
95.4417 100 73.4389
95.4167 100 72.3442
95.6158 100 71.228
96.5594 100 70.6779
97.709 100 70.1229
99.1278 100 69.3675
100.942 100 68.2698
104.302 100 64.86
105.086 100 66.1685
105.518 100 65.1196
106.617 100 64.6309
108.885 100 64.9315
109.879 100 64.4172
109.025 100 62.5909
110.86 100 57.5727
113.633 100 57.5726
115.467 100 62.5905
114.614 100 64.4175
115.609 100 64.9306
117.876 100 64.6292
118.975 100 65.1198
119.407 100 66.1685
120.19 100 64.8599
123.551 100 68.2696
125.364 100 69.3674
126.783 100 70.123
127.933 100 70.6779
128.877 100 71.2279
129.076 100 72.3442
129.051 100 73.4387
131.335 100 73.2621
131.165 100 74.5253
133.117 100 79.1681
134.084 100 79.7222
135.117 100 79.4781
136.142 100 79.1354
137.428 100 79.0746
138.628 100 78.8798
139.725 100 78.4531
140.912 100 78.1627
141.914 100 77.8736
143.893 100 77.8126
144.938 100 77.4456
145.791 100 78.1181
146.839 100 77.6156
77.752 100 78.8025
78.7336 100 79.2417
79.8334 100 78.5439
81.7205 100 78.4493
82.6045 100 79.0278
83.7898 100 79.2155
84.8947 100 79.675
86.3372 100 79.8647
87.6024 100 79.9806
88.6687 100 80.2517
89.2799 100 81.1725
91.3768 100 80.3558
92.4926 100 78.7098
94.491 100 75.6877
94.3058 100 73.8344
96.3404 100 74.4188
96.5454 100 73.0057
96.6803 100 71.7891
97.561 100 71.1918
98.9228 100 71.0406
100.198 100 69.0392
102.955 100 69.1496
106.186 100 66.1911
107.21 100 65.7995
107.751 100 64.6507
108.293 100 65.9869
109.539 100 65.8503
110.595 100 66.3459
108.711 100 63.6433
111.611 100 59.2934
112.881 100 59.2934
115.781 100 63.6424
113.898 100 66.346
114.953 100 65.8503
116.199 100 65.9866
116.743 100 64.6529
117.283 100 65.8002
118.306 100 66.1918
121.537 100 69.1498
124.295 100 69.0392
125.569 100 71.0404
126.931 100 71.1918
127.812 100 71.7891
127.947 100 73.0057
128.152 100 74.4188
130.187 100 73.8341
130.002 100 75.6876
132 100 78.7097
133.116 100 80.3557
135.212 100 81.1725
135.824 100 80.2517
136.89 100 79.9806
138.155 100 79.8647
139.598 100 79.675
140.703 100 79.2155
141.888 100 79.0278
142.772 100 78.4493
144.659 100 78.5439
145.759 100 79.2417
146.74 100 78.8025
77.7532 100 79.9238
78.6896 100 80.6501
79.7242 100 79.7659
80.7963 100 79.078
81.7376 100 79.7885
82.8755 100 79.9955
83.9613 100 80.339
85.1008 100 80.7386
86.1437 100 80.9238
87.2363 100 81.007
88.2566 100 81.2576
90.368 100 81.3055
92.5071 100 80.796
93.6052 100 78.4881
94.1169 100 77.1445
95.1874 100 74.5903
97.3643 100 74.6468
97.5927 100 73.5933
98.2829 100 72.0419
99.6267 100 71.8788
99.6572 100 70.2545
101.823 100 69.3857
104.125 100 68.9373
105.457 100 68.8485
105.75 100 67.8608
107.639 100 66.8332
108.735 100 66.9964
109.856 100 67.2427
111.752 100 66.5672
111.482 100 65.4845
113.012 100 65.4845
112.741 100 66.5667
114.636 100 67.2439
115.756 100 66.9955
116.852 100 66.8335
118.741 100 67.8605
119.035 100 68.8479
120.368 100 68.9378
122.669 100 69.3856
124.835 100 70.2546
124.865 100 71.8785
126.209 100 72.042
126.9 100 73.5932
127.129 100 74.6468
129.305 100 74.5902
130.375 100 77.1445
130.887 100 78.488
131.985 100 80.7959
134.124 100 81.3055
136.236 100 81.2576
137.256 100 81.007
138.349 100 80.9238
139.392 100 80.7386
140.531 100 80.339
141.617 100 79.9955
142.755 100 79.7885
143.696 100 79.078
144.768 100 79.7659
145.803 100 80.6501
146.739 100 79.9238
77.5764 100 81.0112
78.4518 100 81.7668
79.7663 100 80.8965
80.7519 100 80.2175
81.7812 100 81.1713
83.0529 100 81.0644
84.2762 100 81.4491
85.3401 100 81.7438
86.8277 100 82.2414
87.903 100 82.4618
88.9987 100 82.2054
91.5376 100 81.4246
92.4661 100 82.1131
94.4046 100 79.3423
95.9194 100 77.8585
96.6312 100 75.779
97.6533 100 76.2827
98.5408 100 74.3241
99.068 100 73.0438
100.386 100 71.0683
100.944 100 70.1062
102.52 100 70.373
104.966 100 69.8312
106.738 100 68.5802
107.79 100 68.0578
108.94 100 68.3872
109.77 100 69.215
111.085 100 67.5315
109.472 100 70.3336
110.538 100 69.959
113.959 100 69.9601
115.014 100 70.3301
113.406 100 67.5319
114.725 100 69.2137
115.553 100 68.3871
116.702 100 68.0582
117.753 100 68.5807
119.526 100 69.8306
121.973 100 70.3734
123.549 100 70.1061
124.106 100 71.0683
125.424 100 73.0438
125.952 100 74.3245
126.839 100 76.2828
127.861 100 75.7787
128.573 100 77.8585
130.087 100 79.3428
132.027 100 82.1134
132.955 100 81.4245
135.494 100 82.2053
136.589 100 82.4618
137.665 100 82.2414
139.152 100 81.7438
140.216 100 81.4491
141.44 100 81.0644
142.711 100 81.1714
143.741 100 80.2175
144.726 100 80.8965
146.041 100 81.7668
146.916 100 81.0112
77.4004 100 82.0802
78.3401 100 82.8562
79.5398 100 81.9252
80.3469 100 82.6533
80.6558 100 81.5158
81.4107 100 82.2403
83.4769 100 82.2519
84.5399 100 82.4507
85.9367 100 82.7348
86.9227 100 83.3984
88.071 100 83.5248
89.4123 100 83.2764
90.1309 100 82.4
90.9193 100 83.4416
91.9043 100 83.9117
93.5426 100 81.9283
96.7744 100 76.9551
98.2473 100 75.329
99.7593 100 74.47
100.218 100 72.7453
101.154 100 72.0704
101.607 100 71.0669
103.592 100 70.0554
106.093 100 69.8322
107.765 100 69.4272
108.767 100 69.4698
107.859 100 70.4478
108.626 100 71.432
109.729 100 71.4253
111.102 100 71.1636
113.394 100 71.1576
114.76 100 71.4233
115.86 100 71.4266
116.631 100 70.4495
115.726 100 69.4717
116.727 100 69.4289
118.399 100 69.8334
120.9 100 70.0554
122.886 100 71.0666
123.339 100 72.0704
124.274 100 72.7456
124.734 100 74.4702
126.247 100 75.3291
127.718 100 76.955
130.95 100 81.9284
132.588 100 83.9117
133.573 100 83.4417
134.361 100 82.4
135.08 100 83.2763
136.422 100 83.5247
137.57 100 83.3984
138.556 100 82.7348
139.952 100 82.4507
141.016 100 82.2519
143.082 100 82.2402
143.837 100 81.5158
144.146 100 82.6533
144.953 100 81.9252
146.152 100 82.8562
147.092 100 82.0802
77.3268 100 83.2395
78.2272 100 84.0148
79.4038 100 83.115
80.0363 100 84.07
81.176 100 83.4039
82.225 100 83.649
83.5023 100 83.3084
84.4465 100 83.8438
85.491 100 83.6881
86.3047 100 84.4837
87.4201 100 84.3787
88.7329 100 84.4929
89.8081 100 84.6188
90.915 100 84.5267
93.0745 100 83.7781
93.82 100 80.6714
97.0088 100 78.0418
97.8084 100 77.4473
99.3696 100 75.4303
100.522 100 75.2396
102.324 100 71.8602
103.199 100 71.1762
[...]
POINT_DATA 1600
SCALARS mass double
LOOKUP_TABLE default
1
1
1
1
1
1
1
1
1
1
1
1
1
1
1
1
1
1
1
1
1
1
1
1
1
1
1
1
1
1
1
1
1
1
1
1
1
1
1
1
1
1
1
1
1
1
1
1
1
1
1
1
1
1
1
1
1
1
1
1
1
1
1
1
1
1
1
1
1
1
1
1
1
1
1
1
1
1
1
1
1
1
1
1
1
1
1
1
1
1
1
1
1
1
1
1
1
1
1
1
1
1
1
1
1
1
1
1
1
1
1
1
1
1
1
1
1
1
1
1
1
1
1
1
1
1
1
1
1
1
1
1
1
1
1
1
1
1
1
1
1
1
1
1
1
1
1
1
1
1
1
1
1
1
1
1
1
1
1
1
1
1
1
1
1
1
1
1
1
1
1
1
1
1
1
1
1
1
1
1
1
1
1
1
1
1
1
1
1
1
1
1
1
1
1
1
1
1
1
1
1
1
1
1
1
1
1
1
1
1
1
1
1
1
1
1
1
1
1
1
1
1
1
1
1
1
1
1
1
1
1
1
1
1
1
1
1
1
1
1
1
1
1
1
1
1
1
1
1
1
1
1
1
1
1
1
1
1
1
1
1
1
1
1
1
1
1
1
1
1
1
1
1
1
1
1
1
1
1
1
1
1
1
1
1
1
1
1
1
1
1
1
1
1
1
1
1
1
1
1
1
1
1
1
1
1
1
1
1
1
1
1
1
1
1
1
1
1
1
1
1
1
1
1
1
1
1
1
1
1
1
1
1
1
1
1
1
1
1
1
1
1
1
1
1
1
1
1
1
1
1
1
1
1
1
1
1
1
1
1
1
1
1
1
1
1
1
1
1
1
1
1
1
1
1
1
1
1
1
1
1
1
1
1
1
1
1
1
1
1
1
1
1
1
1
1
1
1
1
1
1
1
1
1
1
1
1
1
1
1
1
1
1
1
1
1
1
1
1
1
1
1
1
1
1
1
1
1
1
1
1
1
1
1
1
1
1
1
1
1
1
1
1
1
1
1
1
1
1
1
1
1
1
1
1
1
1
1
1
1
1
1
1
1
1
1
1
1
1
1
1
1
1
1
1
1
1
1
1
1
1
1
1
1
1
1
1
1
1
1
1
1
1
1
1
1
1
1
1
1
1
1
1
1
1
1
1
1
1
1
1
1
1
1
1
1
1
1
1
1
1
1
1
1
1
1
1
1
1
1
1
1
1
1
1
1
1
1
1
1
1
1
1
1
1
1
1
1
1
1
1
1
1
1
1
1
1
1
1
1
1
1
1
1
1
1
1
1
1
1
1
1
1
1
1
1
1
1
1
1
1
1
1
1
1
1
1
1
1
1
1
1
1
1
1
1
1
1
1
1
1
1
1
1
1
1
1
1
1
1
1
1
1
1
1
1
1
1
1
1
1
1
1
1
1
1
1
1
1
1
1
1
1
1
1
1
1
1
1
1
1
1
1
1
1
1
1
1
1
1
1
1
1
1
1
1
1
1
1
1
1
1
1
1
1
1
1
1
1
1
1
1
1
1
1
1
1
1
1
1
1
1
1
1
1
1
1
1
1
1
1
1
1
1
1
1
1
1
1
1
1
1
1
1
1
1
1
1
1
1
1
1
1
1
1
1
1
1
1
1
1
1
1
1
1
1
1
1
1
1
1
1
1
1
1
1
1
1
1
1
1
1
1
1
1
1
1
1
1
1
1
1
1
1
1
1
1
1
1
1
1
1
1
1
1
1
1
1
1
1
1
1
1
1
1
1
1
1
1
1
1
1
1
1
1
1
1
1
1
1
1
1
1
1
1
1
1
1
1
1
1
1
1
1
1
1
1
1
1
1
1
1
1
1
1
1
1
1
1
1
1
1
1
1
1
1
1
1
1
1
1
1
1
1
1
1
1
1
1
1
1
1
1
1
1
1
1
1
1
1
1
1
1
1
1
1
1
1
1
1
1
1
1
1
1
1
1
1
1
1
1
1
1
1
1
1
1
1
1
1
1
1
1
1
1
1
1
1
1
1
1
1
1
1
1
1
1
1
1
1
1
1
1
1
1
1
1
1
1
1
1
1
1
1
1
1
1
1
1
1
1
1
1
1
1
1
1
1
1
1
1
1
1
1
1
1
1
1
1
1
1
1
1
1
1
1
1
1
1
1
1
1
1
1
1
1
1
1
1
1
1
1
1
1
1
1
1
1
1
1
1
1
1
1
1
1
1
1
1
1
1
1
1
1
1
1
1
1
1
1
1
1
1
1
1
1
1
1
1
1
1
1
1
1
1
1
1
1
1
1
1
1
1
1
1
1
1
1
1
1
1
1
1
1
1
1
1
1
1
1
1
1
1
1
1
1
1
1
1
1
1
1
1
1
1
1
1
1
1
1
1
1
1
1
1
1
1
1
1
1
1
1
1
1
1
1
1
1
1
1
1
1
1
1
1
1
1
1
1
1
1
1
1
1
1
1
1
1
1
1
1
1
1
1
1
1
1
1
1
1
1
1
1
1
1
1
1
1
1
1
1
1
1
1
1
1
1
1
1
1
1
1
1
1
1
1
1
1
1
1
1
1
1
1
1
1
1
1
1
1
1
1
1
1
1
1
1
1
1
1
1
1
1
1
1
1
1
1
1
1
1
1
1
1
1
1
1
1
1
1
1
1
1
1
1
1
1
1
1
1
1
1
1
1
1
1
1
1
1
1
1
1
1
1
1
1
1
1
1
1
1
1
1
1
1
1
1
1
1
1
1
1
1
1
1
1
1
1
1
1
1
1
1
1
1
1
1
1
1
1
1
1
1
1
1
1
1
1
1
1
1
1
1
1
1
1
1
1
1
1
1
1
1
1
1
1
1
1
1
1
1
1
1
1
1
1
1
1
1
1
1
1
1
1
1
1
1
1
1
1
1
1
1
1
1
1
1
1
1
1
1
1
1
1
1
1
1
1
1
1
1
1
1
1
1
1
1
1
1
1
1
1
1
1
1
1
1
1
1
1
1
1
1
1
1
1
1
1
1
1
1
1
1
1
1
1
1
1
1
1
1
1
1
1
1
1
1
1
1
1
1
1
1
1
1
1
1
1
1
1
1
1
1
1
1
1
1
1
1
1
1
1
1
1
1
1
1
1
1
1
1
1
1
1
1
1
1
1
1
1
1
1
1
1
1
1
1
1
1
1
1
1
1
1
1
1
1
1
1
1
1
1
1
1
1
1
1
1
1
1
1
1
1
1
1
1
1
1
1
1
1
1
1
1
1
1
1
1
1
1
1
1
1
1
1
1
1
1
1
1
1
1
1
1
1
1
1
1
1
1
1
1
1
1
1
1
1
1
1
1
1
1
1
1
1
1
1
1
1
1
1
1
1
1
1
1
1
1
1
1
1
1
1
1
1
1
1
1
1
1
1
1
1
1
1
1
1
1
1
1
1
1
1
1
1
1
1
1
1
1
1
1
1
1
1
1
1
1
1
1
1
1
1
1
1
1
1
1
1
1
1
1
1
1
1
1
1
1
1
1
1
1
1
1
1
1
1
1
1
1
1
1
1
1
1
1
1
1
1
1
1
1
1
1
1
1
1
1
1
1
1
1
1
1
1
1
1
1
1
1
1
1
1
1
1
1
1
1
1
1
VECTORS force double
7.548 0 8.90251
-2.55643 0 -101.663
-24.0473 0 0.339841
2.90385 0 0.238733
-41.3468 0 1.61459
58.3129 0 20.235
1.74167 0 18.3762
-2.48635 0 17.0204
-22.251 0 1.23651
-2.32681 0 13.1647
-2.47019 0 54.6461
-2.32251 0 13.3993
14.4219 0 -68.2885
-14.7457 0 60.2515
-3.1569 0 -18.8217
11.4467 0 -1.71773
-22.6113 0 -6.05637
-36.7779 0 -24.0255
0 0 0
13.594 0 12.77
35.4631 0 -42.2637
6.46724 0 -13.3399
-4.55094 0 -9.15131
-1.42735 0 -6.88697
-5.79482 0 9.8648
-4.72948 0 11.3634
-12.3824 0 -36.6074
8.82705 0 19.1179
-2.63574 0 9.12788
-3.90888 0 10.8122
3.90852 0 10.8099
2.65873 0 9.13639
-8.82717 0 19.1158
12.3594 0 -36.6053
4.73091 0 11.3627
5.79488 0 9.86493
1.42763 0 -6.88684
4.55031 0 -9.15107
-6.46714 0 -13.3398
-35.4633 0 -42.2659
-13.6299 0 12.7616
0 0 0
36.7034 0 -23.9529
22.6138 0 -6.06009
-11.4467 0 -1.71701
3.1373 0 -18.7959
14.7684 0 60.2335
-14.4164 0 -68.2836
2.31866 0 13.3983
2.4676 0 54.638
2.32993 0 13.1661
22.2504 0 1.23895
2.48356 0 17.0176
-1.74152 0 18.3762
-58.313 0 20.2351
41.3469 0 1.61487
-2.90375 0 0.238571
24.0474 0 0.339706
2.5565 0 -101.663
-7.548 0 8.90251
-5.09528 0 12.3133
15.135 0 101.964
11.0628 0 30.8005
4.33488 0 1.04795
-5.30098 0 4.52011
2.8989 0 -61.9072
44.2063 0 -9.68345
2.0077 0 -7.24833
4.39344 0 7.946
4.23957 0 6.9424
-4.15627 0 3.28203
-0.328536 0 -16.495
-44.5372 0 96.2672
47.2214 0 -74.6242
-11.6622 0 -2.28928
28.5635 0 -49.1229
20.8999 0 19.3479
-5.40886 0 16.6726
-2.69221 0 -2.83075
38.3199 0 -8.36079
-16.2108 0 57.142
0 0 0
6.72016 0 11.1601
20.6622 0 26.4122
5.48239 0 11.0294
0.31789 0 -15.7333
-24.2229 0 -5.45827
7.41892 0 -25.1459
33.0604 0 25.6693
-15.3023 0 0.793254
15.2999 0 0.80126
-33.0568 0 25.6665
-7.43032 0 -25.1394
24.229 0 -5.45284
-0.317289 0 -15.7339
-5.48518 0 11.0309
-20.6732 0 26.392
-6.77092 0 11.1871
0 0 0
16.2115 0 57.1438
-38.3125 0 -8.34652
2.60854 0 -2.78861
5.42786 0 16.6682
-20.9001 0 19.3548
-28.5625 0 -49.1339
11.6545 0 -2.27476
-47.2857 0 -74.6986
44.5874 0 96.3454
0.327008 0 -16.4936
4.15566 0 3.28265
-4.24006 0 6.9413
-4.39488 0 7.9448
-2.00666 0 -7.24849
-44.2062 0 -9.68287
-2.89819 0 -61.9045
5.30075 0 4.52016
-4.33489 0 1.04796
-11.0629 0 30.8007
-15.135 0 101.964
5.09527 0 12.3133
-1.7119 0 -15.9673
0.997654 0 -32.8373
-15.4743 0 -80.3481
8.98522 0 3.64129
-15.1123 0 -4.82004
-27.3525 0 -34.8133
-42.4408 0 20.5903
29.2533 0 13.0387
-26.6247 0 -2.62813
12.7085 0 -24.1791
-10.4025 0 -4.94255
-24.6423 0 30.6507
27.4649 0 -12.6921
7.37385 0 -3.36774
3.83058 0 -3.51081
-7.27607 0 10.0231
16.7786 0 0.967912
-43.8827 0 36.7606
92.4368 0 3.54338
-44.0702 0 -8.12298
4.80459 0 -27.8359
10.313 0 8.35116
-21.0244 0 -44.0039
-0.913699 0 18.587
0.708666 0 2.26764
-0.326872 0 2.8439
2.65953 0 11.6661
20.0871 0 -14.2266
0.0898335 0 -20.3465
-1.74411 0 -3.51529
1.74191 0 -3.52107
-0.0740337 0 -20.3451
-20.2037 0 -14.5699
-2.60897 0 11.607
0.355231 0 2.83721
-0.706328 0 2.26671
1.0221 0 18.7943
21.0293 0 -44.0283
-10.3057 0 8.35619
-4.81509 0 -27.8267
44.0758 0 -8.2513
-92.4285 0 3.42093
43.9646 0 36.8234
-16.7824 0 0.966346
7.37138 0 10.0614
-3.85321 0 -3.53077
-7.37199 0 -3.36727
-27.4645 0 -12.6961
24.6411 0 30.6506
10.4046 0 -4.94481
-12.7094 0 -24.1794
26.6269 0 -2.62829
-29.2547 0 13.0385
42.4423 0 20.5873
27.352 0 -34.8169
15.1123 0 -4.82009
-8.98516 0 3.64101
15.4743 0 -80.3468
-0.99797 0 -32.8373
1.71199 0 -15.9673
0.0615764 0 26.4639
-12.4286 0 21.2099
33.5939 0 68.2196
48.9208 0 -9.13689
-3.08238 0 -28.3115
67.6196 0 60.4592
-8.95554 0 9.47503
-6.91642 0 -22.7961
-13.4146 0 -44.6517
-15.446 0 5.11122
21.4998 0 -40.7045
31.3619 0 6.30318
3.04378 0 7.44562
-0.644829 0 -9.64453
12.9247 0 33.1248
3.39277 0 25.588
4.38112 0 -18.651
5.72999 0 0.678358
13.8801 0 -23.897
-2.57085 0 -24.489
-35.7524 0 -20.4885
8.27068 0 21.7588
14.3912 0 -14.7673
-7.61964 0 -7.12626
20.305 0 52.3471
-7.13793 0 15.6949
-17.1074 0 -0.247548
-7.57835 0 2.1457
-10.9979 0 -9.63723
2.74698 0 -1.60686
-2.74434 0 -1.60855
10.8481 0 -9.83105
7.46978 0 2.10042
16.9522 0 0.111908
7.21808 0 15.7384
-20.2923 0 52.3087
7.20231 0 -7.08667
-14.3804 0 -14.761
-8.25765 0 21.7165
35.8785 0 -20.3595
2.57053 0 -24.5409
-13.8745 0 -23.8368
-5.8432 0 0.661636
-4.37557 0 -18.7153
-3.37993 0 25.6531
-12.9041 0 33.1247
0.640442 0 -9.64628
-3.04643 0 7.44898
-31.3648 0 6.30596
-21.5022 0 -40.6976
15.4513 0 5.10997
13.4181 0 -44.6503
6.91668 0 -22.7966
8.95588 0 9.47622
-67.6201 0 60.4612
3.0819 0 -28.3118
-48.9215 0 -9.13756
-33.5941 0 68.2185
12.4287 0 21.2101
-0.0614044 0 26.464
-10.8856 0 -25.0171
20.4884 0 15.3548
-51.9061 0 30.3489
-89.6713 0 7.15025
13.8575 0 -92.9781
4.13445 0 26.6965
-2.72245 0 -33.6754
-1.21453 0 13.9517
8.65276 0 21.75
-23.8076 0 10.0929
73.064 0 -24.398
-4.52519 0 -22.5581
-16.4301 0 0.720278
2.5 0 -8.2614
-3.43276 0 -3.33745
-49.4251 0 -17.7996
-8.0799 0 -0.61253
-40.0046 0 28.3805
27.8826 0 -0.812347
-32.5413 0 11.8342
-21.155 0 21.6364
-3.60124 0 7.41488
-2.5429 0 -6.6267
0.388247 0 -26.4863
7.62856 0 7.76502
36.0155 0 -42.5042
-6.72615 0 11.4283
8.47246 0 6.03013
-12.2593 0 23.9631
11.2278 0 -1.27589
-11.2279 0 -1.2753
12.2874 0 24.1288
-8.51001 0 6.0764
7.00569 0 11.1099
-35.5318 0 -42.5845
-7.60885 0 7.89749
-1.37122 0 -26.5396
3.55556 0 -6.36534
3.5983 0 7.44389
21.0496 0 21.6349
32.8413 0 12.0403
-27.8705 0 -0.771963
40.0303 0 28.3494
8.07322 0 -0.61507
49.7023 0 -17.8678
3.42593 0 -3.33483
-2.49789 0 -8.26311
16.4378 0 0.721208
4.52713 0 -22.5565
-73.0479 0 -24.4318
23.8001 0 10.1066
-8.64809 0 21.7504
1.21315 0 13.9511
2.72222 0 -33.6765
-4.13506 0 26.6973
-13.8557 0 -92.9821
89.6714 0 7.15071
51.9071 0 30.3493
-20.4883 0 15.3547
10.8856 0 -25.0173
20.1823 0 -6.32612
-12.9326 0 -9.84587
3.81272 0 -9.59348
2.44885 0 8.81464
24.3516 0 -17.9319
30.0856 0 82.9435
6.34032 0 7.40677
-41.1513 0 -64.1704
17.6699 0 32.9855
-37.7696 0 9.71274
-36.4846 0 43.2329
21.8248 0 -7.41011
-3.71308 0 11.5185
5.29387 0 0.64382
-0.509334 0 2.29662
-1.16236 0 -6.45846
42.4242 0 34.3088
3.22008 0 -17.8818
19.0613 0 2.33571
-29.3415 0 -16.8175
52.341 0 21.2088
3.46933 0 6.6937
3.62708 0 21.6267
-9.35845 0 61.6572
28.3773 0 -57.7245
-21.492 0 31.0093
14.3364 0 14.1749
4.63447 0 -6.59275
-158.039 0 6.3967
-3.79706 0 8.80939
3.82302 0 8.74988
158.034 0 6.30475
-4.71185 0 -6.59859
-14.2282 0 14.0954
21.3309 0 30.8998
-28.4877 0 -57.9517
9.39381 0 62.0777
-3.61974 0 21.6059
-3.48444 0 6.71059
-52.5722 0 20.9745
29.0625 0 -16.4159
-19.0556 0 2.28962
-3.21296 0 -17.7588
-42.5718 0 34.1534
1.18718 0 -6.478
0.511311 0 2.29791
-5.34788 0 0.693093
3.71697 0 11.5195
-21.8147 0 -7.40273
36.4339 0 43.2261
37.7926 0 9.70658
-17.6733 0 32.984
41.1501 0 -64.1659
-6.34036 0 7.40627
-30.0862 0 82.9468
-24.3512 0 -17.9316
-2.44913 0 8.81459
-3.81275 0 -9.59329
12.9344 0 -9.84596
-20.1824 0 -6.32567
17.0759 0 -6.5747
2.78817 0 -22.1567
7.24253 0 -51.3124
-23.4358 0 26.0519
-2.73267 0 -12.8239
12.0373 0 25.0694
-44.7706 0 -58.285
50.9036 0 47.0802
64.0573 0 -51.2388
3.55518 0 -26.0647
-6.70792 0 22.0551
2.61577 0 18.0759
-16.4013 0 -10.4993
-6.38763 0 3.27197
2.55497 0 -10.3508
10.8161 0 -5.32815
-25.9824 0 -1.95603
12.7673 0 -45.8491
2.08961 0 -9.47608
21.2353 0 19.5019
-5.19439 0 -5.4344
-37.5899 0 -40.6666
-20.065 0 18.0453
-6.53135 0 5.02458
6.62111 0 0.172965
-3.3001 0 -15.9009
30.8313 0 -32.12
-10.5444 0 -21.6714
-3.45793 0 1.28601
16.9724 0 29.5252
-20.0507 0 28.9107
6.44685 0 3.19271
10.5409 0 -21.6745
-31.4648 0 -33.0585
3.49325 0 -15.1318
-6.57079 0 0.144804
6.5677 0 4.99115
20.0372 0 17.9591
38.2206 0 -41.3879
5.20243 0 -5.50291
-21.2006 0 19.4913
-2.09478 0 -9.47546
-12.7814 0 -45.6591
25.7836 0 -1.58775
-10.815 0 -5.36885
-2.47751 0 -10.3626
6.43499 0 3.23836
16.4189 0 -10.4692
-2.60797 0 18.0576
6.69822 0 22.0806
-3.57174 0 -26.0917
-63.9507 0 -51.2002
-50.9028 0 47.0754
44.7703 0 -58.2846
-12.037 0 25.0698
2.73186 0 -12.826
23.4355 0 26.0519
-7.24374 0 -51.3125
-2.78895 0 -22.157
-17.0764 0 -6.57499
-0.989043 0 33.5613
-0.540902 0 -1.00237
-8.11302 0 35.5913
51.825 0 -15.6666
-23.391 0 -23.9672
28.5128 0 43.1312
-19.9089 0 -51.3845
14.5486 0 93.8107
-58.3086 0 2.86627
-10.9164 0 -14.0987
24.7287 0 4.88334
-7.8079 0 9.03073
-2.73007 0 5.01259
-24.1137 0 -27.0437
11.0164 0 10.0222
2.5882 0 -12.4745
-7.48134 0 0.722646
-7.58855 0 54.2219
-4.67779 0 -69.3
18.6052 0 32.1353
-9.99417 0 -2.80637
-22.5634 0 -38.3301
18.9154 0 9.38081
1.21248 0 0.244418
-125.944 0 -93.3677
44.8016 0 34.2086
29.5978 0 71.1694
-8.49493 0 -2.99506
25.4059 0 -3.78033
-19.2953 0 1.27068
19.5868 0 1.12294
-26.0933 0 -2.85401
9.39367 0 -3.43968
-29.2492 0 71.0789
-46.9358 0 33.8665
128.477 0 -93.1528
-1.14326 0 0.218829
-18.8829 0 9.30822
22.7189 0 -38.3423
9.93301 0 -2.92907
-18.3556 0 31.8524
3.90157 0 -69.6569
7.1937 0 53.9614
7.44562 0 0.710724
-2.76456 0 -12.4781
-10.9681 0 9.99634
24.0571 0 -27.0606
2.72735 0 4.99009
7.81339 0 9.04063
-24.7337 0 4.93041
10.9167 0 -14.0691
58.2441 0 2.83075
-14.5464 0 93.8098
19.9099 0 -51.3865
-28.5158 0 43.1368
23.3946 0 -23.9707
-51.8293 0 -15.6661
8.11568 0 35.5893
0.539532 0 -1.00199
0.989109 0 33.5617
-7.78489 0 15.1892
-7.52696 0 -1.48726
-28.4866 0 15.3748
-2.74406 0 -23.1094
-28.4736 0 -7.31772
36.1672 0 6.20623
-17.3317 0 34.5289
-26.7516 0 5.93207
26.2454 0 28.1805
-10.5726 0 -20.2586
0.635218 0 43.886
-30.7948 0 2.18977
-21.0253 0 -41.9569
10.6119 0 9.94033
-9.84318 0 5.74282
-2.2734 0 9.70669
-103.965 0 74.1416
114.689 0 -92.9323
-22.6856 0 58.7599
15.7768 0 25.9458
13.4767 0 20.9801
29.7026 0 28.285
9.21105 0 -13.7608
-3.11991 0 -19.7634
-13.751 0 10.4618
-15.0458 0 -0.270945
4.06566 0 -8.08456
-16.469 0 19.1015
-0.73877 0 -42.8614
-2.77174 0 -3.26775
-0.0531628 0 -3.70363
-0.571947 0 -43.9887
18.5288 0 18.188
-4.87421 0 -6.78073
14.643 0 -0.608414
13.7897 0 10.4661
3.07071 0 -19.7687
-9.21815 0 -13.7174
-30.2603 0 29.0987
-13.6508 0 21.0058
-15.3056 0 25.3713
23.0782 0 59.4443
-114.502 0 -92.7803
103.756 0 73.9695
2.27735 0 9.68987
9.84724 0 5.73945
-10.5638 0 10.0388
21.0235 0 -41.985
30.7746 0 2.19099
-0.647193 0 43.8547
10.5549 0 -20.2156
-26.1687 0 28.1696
26.6765 0 5.91638
17.3302 0 34.5309
-36.167 0 6.20638
28.4733 0 -7.31784
2.74522 0 -23.1111
28.4897 0 15.3766
7.52713 0 -1.48716
7.78507 0 15.1892
21.253 0 -6.05841
7.98268 0 -3.61161
-9.15844 0 -17.542
-2.40394 0 -3.97671
-2.51822 0 18.6937
1.82626 0 -15.4054
16.7571 0 4.36384
-2.58516 0 8.76478
-49.3577 0 -1.0733
-14.9671 0 5.84515
40.368 0 2.18419
-14.0684 0 -2.56645
20.3607 0 -2.43109
24.024 0 59.7282
-4.23122 0 -2.05761
-52.357 0 -30.0374
56.9776 0 54.5831
-43.1649 0 -40.4343
27.9422 0 -0.0720645
-18.6193 0 -22.3652
-1.0871 0 -12.8808
1.87312 0 5.34034
-9.3775 0 -5.11532
13.3044 0 -38.2027
-1.84797 0 7.55639
9.23803 0 8.7174
1.63177 0 23.5942
16.5781 0 -12.6608
-11.1393 0 15.6788
2.1358 0 -0.634969
-1.11567 0 -0.158955
5.54438 0 16.8447
-15.3239 0 -12.7457
-1.89834 0 23.2031
-9.3344 0 8.81684
1.83161 0 7.61342
-13.2571 0 -38.2936
9.29333 0 -5.22865
-1.99196 0 5.28215
1.06907 0 -12.6439
18.1111 0 -21.7055
-27.5721 0 -0.107762
43.1615 0 -40.4099
-57.1052 0 54.5512
52.632 0 -30.069
4.30471 0 -2.06943
-24.0708 0 59.7523
-20.3736 0 -2.42649
14.076 0 -2.56823
-40.3295 0 2.15821
14.9471 0 5.83798
49.3536 0 -1.07084
2.58629 0 8.76013
-16.7574 0 4.3636
-1.82675 0 -15.4022
2.51767 0 18.6947
2.40374 0 -3.97593
9.15771 0 -17.5421
-7.98284 0 -3.6118
-21.2531 0 -6.0583
14.793 0 16.9267
-21.2 0 40.5089
-5.0128 0 0.444195
35.7503 0 -31.1533
-5.11881 0 9.85466
-0.526797 0 6.44231
-1.63022 0 -71.0648
-4.67295 0 -12.0307
4.66854 0 14.7381
42.9595 0 13.0638
-8.28242 0 -40.2749
-2.56252 0 -6.00003
0.401964 0 -12.8653
-25.8546 0 0.48949
-16.3186 0 4.88928
14.377 0 0.949498
8.35463 0 -15.0371
-2.51028 0 7.2923
27.9108 0 33.9197
-0.577134 0 -39.6697
-47.8672 0 -48.6333
-11.9773 0 18.3049
-8.90958 0 2.82228
12.6306 0 4.86069
-22.9844 0 -5.38408
-2.5177 0 -1.99677
-17.651 0 -7.12429
-26.7065 0 17.3128
-8.66188 0 -31.5524
38.1937 0 -3.36171
-33.5895 0 -4.28777
8.09035 0 -32.7744
28.1847 0 16.8048
18.8373 0 -7.01888
2.49481 0 -2.11191
22.6748 0 -4.74692
-12.5543 0 5.09392
8.89552 0 2.78893
12.0541 0 18.303
48.1458 0 -48.5129
0.477218 0 -39.423
-27.9205 0 33.9026
2.24809 0 7.5197
-8.35147 0 -15.0296
-14.408 0 0.914978
16.3725 0 4.9542
25.9109 0 0.448092
-0.405681 0 -12.8729
2.56379 0 -6.00494
8.2781 0 -40.2659
-42.9547 0 13.0644
-4.66902 0 14.7355
4.67245 0 -12.0296
1.63214 0 -71.0622
0.52623 0 6.44229
5.12197 0 9.8524
-35.7487 0 -31.1542
5.00923 0 0.446721
21.1998 0 40.5091
-14.7928 0 16.9272
21.1223 0 0.893024
-28.4463 0 1.68342
44.229 0 11.0073
-0.162746 0 13.5554
23.4846 0 -28.0072
7.94209 0 14.4272
-14.6676 0 39.6924
18.4753 0 30.253
1.19771 0 5.03981
0.186503 0 -6.04193
5.80634 0 4.66855
14.0589 0 47.0261
0.294107 0 9.33208
1.57001 0 -9.94158
1.16921 0 36.1453
-29.5623 0 -23.7201
28.7575 0 -8.83224
0.28549 0 -6.9445
27.1617 0 33.6133
-38.0195 0 -3.424
21.1277 0 23.1436
51.9605 0 52.6375
-2.91159 0 -9.87032
-43.7187 0 -55.0683
17.7772 0 2.80019
-2.51748 0 -1.55009
-14.3493 0 8.11146
-0.11616 0 -11.5225
3.67389 0 0.607245
1.9196 0 -2.59572
-2.16091 0 -2.90641
-4.47446 0 0.709914
-0.211078 0 -11.4656
14.3263 0 8.03671
2.51599 0 -1.62643
-17.8005 0 2.77575
43.7242 0 -54.9895
2.8805 0 -9.84316
-52.1134 0 52.7545
-20.7377 0 22.2109
38.7464 0 -3.48424
-27.1168 0 33.3859
-0.290071 0 -6.91093
-28.8284 0 -8.90021
29.7035 0 -23.7909
-1.2051 0 36.1565
-1.49545 0 -9.97821
-0.310784 0 9.34435
-14.0516 0 47.0167
-5.79995 0 4.6673
-0.192137 0 -6.0344
-1.20085 0 5.03604
-18.4742 0 30.2521
14.6661 0 39.6898
-7.94539 0 14.4283
-23.4775 0 -28.0045
0.158393 0 13.5498
-44.2236 0 11.0075
28.4465 0 1.68346
-21.1226 0 0.892353
-45.9746 0 55.3694
-9.14888 0 -93.2795
3.71885 0 -12.814
-4.34694 0 7.319
-23.4283 0 -36.9839
-15.3468 0 8.73527
20.4507 0 4.4434
37.8439 0 -11.4856
-13.1127 0 -11.2595
-7.25553 0 -12.0706
-7.87365 0 -0.352041
6.40098 0 -8.69681
-9.62746 0 -43.4151
1.4914 0 7.3274
-1.03361 0 -6.58698
14.7104 0 -13.9628
19.9976 0 6.33864
-19.6188 0 11.9224
19.2692 0 -8.86209
9.11052 0 -19.8501
11.2704 0 14.046
9.63412 0 -9.99862
-4.48062 0 8.16609
-31.1298 0 48.945
13.537 0 21.0182
8.79803 0 -14.1999
11.1828 0 4.61071
4.44955 0 -8.70576
-11.475 0 27.7219
-4.57359 0 -3.64632
4.16879 0 -2.97197
12.2012 0 29.2298
-4.42552 0 -8.65734
-11.0779 0 4.50312
-8.77278 0 -13.9047
-13.286 0 20.4451
30.5259 0 49.025
4.38281 0 8.18338
-9.60017 0 -9.8423
-11.2688 0 14.0525
-8.808 0 -20.2466
-19.2457 0 -8.8455
19.6121 0 11.9319
-20.1267 0 6.42767
-14.7179 0 -13.9763
1.015 0 -6.53066
-1.53442 0 7.30204
9.61414 0 -43.7756
-6.39654 0 -8.68477
7.87529 0 -0.358204
7.25237 0 -12.0579
13.1219 0 -11.2674
-37.8461 0 -11.4868
-20.4472 0 4.44423
15.3486 0 8.73672
23.4243 0 -36.9802
4.34729 0 7.31906
-3.71788 0 -12.8135
9.14559 0 -93.2762
45.9741 0 55.3664
19.4856 0 -0.582616
-3.9262 0 21.8193
-4.86764 0 -0.615554
25.606 0 -65.4215
-34.2406 0 -7.87893
47.1545 0 60.8448
13.3846 0 -21.0569
-26.4596 0 -49.63
10.0345 0 -18.6896
5.91489 0 13.2602
-22.8261 0 -13.0222
6.38527 0 1.73364
-28.5535 0 -6.82633
-51.3822 0 19.0447
-2.65143 0 -7.92927
10.4843 0 0.452614
-47.0877 0 -44.4829
7.56418 0 -7.35464
14.6143 0 20.8232
-3.03013 0 22.0585
2.97446 0 11.3485
-37.3866 0 -34.8399
-7.34204 0 -2.1456
17.2092 0 -6.90763
64.89 0 -53.5304
34.4794 0 45.4427
-17.0048 0 4.5516
-32.3152 0 -32.8722
12.8412 0 -0.934673
-26.6422 0 14.0179
24.2772 0 14.9044
-12.8368 0 -1.12203
32.0998 0 -32.8543
16.9867 0 4.62011
-34.5652 0 45.595
-64.9853 0 -53.5329
-17.2669 0 -6.87262
7.4497 0 -2.30642
37.6954 0 -35.0706
-2.89077 0 11.3213
3.01776 0 22.2088
-14.6127 0 20.8232
-7.65974 0 -7.15728
46.7471 0 -44.4344
-10.4236 0 0.329205
2.63996 0 -7.92655
51.3725 0 19.0417
28.5351 0 -6.26574
-6.33575 0 1.71492
22.8383 0 -13.0344
-5.91336 0 13.2547
-10.0354 0 -18.6987
26.4469 0 -49.6032
-13.3881 0 -21.0666
-47.1602 0 60.8402
34.2462 0 -7.88039
-25.6045 0 -65.4222
4.86823 0 -0.616762
3.92561 0 21.8211
-19.486 0 -0.582744
9.90209 0 -7.82055
-23.3033 0 -8.77692
-22.9268 0 110.372
27.232 0 -44.007
-14.9942 0 13.3726
-69.3649 0 14.1754
89.1728 0 -10.2772
-25.2283 0 -4.2595
36.7959 0 57.1698
-6.80259 0 -24.0938
-1.37122 0 8.54425
13.6947 0 21.839
13.6125 0 -24.8392
14.2268 0 42.9981
4.04935 0 18.6063
-16.4311 0 -5.67755
22.513 0 -23.1828
14.8849 0 -11.4344
-13.2496 0 34.5678
14.3766 0 -28.6841
-133.481 0 71.8389
179.364 0 -29.119
-16.9992 0 2.06935
-24.788 0 -2.37782
-17.768 0 8.11858
14.119 0 14.5597
0.489433 0 -8.42923
7.66572 0 15.8302
-10.104 0 -2.28714
26.2304 0 -2.11406
-24.1531 0 -1.60096
11.0003 0 -3.90324
-7.57482 0 16.0256
-0.529722 0 -8.51876
-13.9761 0 14.2315
17.6956 0 8.09297
24.6337 0 -2.34431
17.4223 0 1.87792
-179.11 0 -28.6846
132.718 0 71.5537
-14.7802 0 -29.3659
13.6597 0 35.2702
-14.9785 0 -11.2372
-22.516 0 -23.1796
16.4107 0 -5.61981
-3.9239 0 18.4708
-14.248 0 43.027
-13.6521 0 -24.9649