# vtk DataFile Version 3.0
SiWiRVisFile
ASCII
DATASET UNSTRUCTURED_GRID
POINTS 1600 DOUBLE
78.0789 100 75.0559
79.1087 100 75.4534
80.1947 100 75.8422
82.037 100 75.3377
83.148 100 75.4738
84.2964 100 75.6605
85.4695 100 75.6969
86.695 100 75.9002
87.8719 100 76.1123
89.277 100 75.9708
90.3542 100 76.3419
91.4796 100 76.9814
91.3337 100 75.6899
91.978 100 74.5278
92.4298 100 73.3637
94.4847 100 72.1967
95.7694 100 71.4863
96.741 100 71.9682
96.7529 100 70.3067
99.4944 100 71.7282
103.772 100 63.1068
103.082 100 65.1917
103.584 100 64.1095
104.982 100 64.4233
104.923 100 63.0687
106.622 100 62.8704
108.867 100 62.926
109.692 100 61.69
110.788 100 61.9734
111.734 100 61.1223
112.759 100 61.1223
113.704 100 61.9734
114.8 100 61.69
115.625 100 62.926
117.87 100 62.8704
119.569 100 63.0687
119.511 100 64.4233
120.908 100 64.1095
121.41 100 65.1917
120.72 100 63.1068
124.998 100 71.7282
127.739 100 70.3067
127.751 100 71.9682
128.723 100 71.4863
130.008 100 72.1967
132.063 100 73.3637
132.514 100 74.5278
133.159 100 75.6899
133.013 100 76.9814
134.138 100 76.3419
135.215 100 75.9708
136.62 100 76.1123
137.797 100 75.9002
139.023 100 75.6969
140.196 100 75.6605
141.344 100 75.4738
142.455 100 75.3377
144.298 100 75.8422
145.384 100 75.4534
146.413 100 75.0559
78.2223 100 76.1369
79.2384 100 76.5473
81.2301 100 76.2109
82.3631 100 76.3928
83.5682 100 76.5054
84.8396 100 76.5261
85.9394 100 76.7507
87.1061 100 76.956
88.1823 100 77.2486
89.2431 100 77.4376
90.3436 100 77.7828
91.5263 100 78.1253
92.3523 100 76.3994
92.8012 100 75.3091
93.9644 100 75.1825
93.6311 100 73.7936
95.4387 100 72.8174
98.341 100 71.911
99.4059 100 72.8553
101.052 100 71.1877
102.227 100 64.4693
100.857 100 68.8234
104 100 68.5583
108.593 100 65.4978
105.986 100 63.7649
107.273 100 64.0718
108.367 100 64.227
109.394 100 63.9354
110.461 100 63.1818
111.751 100 62.5263
112.741 100 62.5263
114.032 100 63.1818
115.099 100 63.9354
116.126 100 64.227
117.219 100 64.0718
118.506 100 63.7649
115.899 100 65.4978
120.493 100 68.5583
123.636 100 68.8234
122.266 100 64.4693
123.44 100 71.1877
125.087 100 72.8553
126.151 100 71.911
129.054 100 72.8174
130.861 100 73.7936
130.528 100 75.1825
131.691 100 75.3091
132.14 100 76.3994
132.966 100 78.1253
134.149 100 77.7828
135.249 100 77.4376
136.31 100 77.2486
137.386 100 76.956
138.553 100 76.7507
139.653 100 76.5261
140.924 100 76.5054
142.129 100 76.3928
143.262 100 76.2109
145.254 100 76.5473
146.27 100 76.1369
78.3307 100 77.2607
79.4554 100 77.7283
80.3829 100 77.0189
81.5066 100 77.405
82.8275 100 77.3707
83.9824 100 77.4803
85.0958 100 77.7641
86.3595 100 77.9378
87.5297 100 78.1189
88.7025 100 78.4139
89.7362 100 78.8891
90.8167 100 79.2362
91.9878 100 79.5827
92.3976 100 77.4526
94.7551 100 76.2776
95.1047 100 75.1157
95.3792 100 73.936
96.4549 100 73.3488
97.8971 100 73.3826
100.543 100 72.2076
102.479 100 71.1052
103.035 100 69.1364
105.127 100 69.7618
105.907 100 69.0725
107.044 100 67.6052
108.17 100 70.0797
109.039 100 68.9987
107.725 100 68.8708
110.295 100 64.4632
111.341 100 63.7426
113.151 100 63.7426
114.197 100 64.4632
116.767 100 68.8708
115.453 100 68.9987
116.323 100 70.0797
117.448 100 67.6052
118.585 100 69.0725
119.365 100 69.7618
121.457 100 69.1364
122.013 100 71.1052
123.949 100 72.2076
126.595 100 73.3826
128.038 100 73.3488
129.113 100 73.936
129.388 100 75.1157
129.737 100 76.2776
132.095 100 77.4526
132.505 100 79.5827
133.676 100 79.2362
134.756 100 78.8891
135.79 100 78.4139
136.963 100 78.1189
138.133 100 77.9378
139.397 100 77.7641
140.51 100 77.4803
141.665 100 77.3707
142.986 100 77.405
144.109 100 77.0189
145.037 100 77.7283
146.162 100 77.2607
78.5752 100 78.3559
79.6024 100 78.8133
80.6124 100 78.1204
81.7888 100 78.4896
83.1471 100 78.4903
84.3299 100 78.6572
85.4409 100 78.8382
86.5759 100 79.0182
87.724 100 79.2009
88.9038 100 79.6517
90.0693 100 80.1316
91.1787 100 80.3673
92.4611 100 80.6328
93.3572 100 77.9514
93.3295 100 76.6025
95.5881 100 77.0363
96.2515 100 75.6412
96.9806 100 74.6305
98.1554 100 74.6126
99.489 100 74.1145
100.426 100 73.3034
101.635 100 72.1197
103.584 100 70.9173
104.798 100 70.9776
105.976 100 70.4573
106.925 100 69.8257
108.938 100 70.977
110.023 100 70.9886
110.366 100 68.5262
111.318 100 65.1272
113.175 100 65.1272
114.126 100 68.5262
114.469 100 70.9886
115.554 100 70.977
117.567 100 69.8256
118.516 100 70.4573
119.695 100 70.9776
120.909 100 70.9173
122.857 100 72.1197
124.067 100 73.3034
125.003 100 74.1145
126.337 100 74.6126
127.512 100 74.6305
128.241 100 75.6412
128.904 100 77.0363
131.163 100 76.6025
131.135 100 77.9514
132.031 100 80.6328
133.314 100 80.3673
134.423 100 80.1316
135.589 100 79.6517
136.768 100 79.2009
137.916 100 79.0182
139.052 100 78.8382
140.163 100 78.6572
141.345 100 78.4903
142.704 100 78.4896
143.88 100 78.1204
144.89 100 78.8133
145.917 100 78.3559
78.6357 100 79.4807
79.6937 100 79.9336
80.9035 100 79.1754
82.5351 100 79.4479
83.5922 100 79.5026
84.6461 100 79.8386
85.7414 100 79.9997
86.9765 100 80.0666
87.8811 100 80.7419
89.0253 100 80.9628
90.3292 100 81.2266
91.5471 100 81.4634
93.524 100 79.9174
94.2851 100 78.6245
94.5027 100 77.4029
96.36 100 77.7939
96.8393 100 76.5723
97.5724 100 75.6339
98.5906 100 75.5138
99.6858 100 75.2029
101.472 100 73.255
103.213 100 73.0738
105.148 100 72.3711
106.007 100 71.6584
107.118 100 70.9535
108.063 100 71.5606
109.405 100 71.9697
110.431 100 72.144
110.046 100 69.524
111.378 100 68.1039
113.114 100 68.1039
114.447 100 69.524
114.062 100 72.144
115.088 100 71.9697
116.429 100 71.5606
117.374 100 70.9535
118.486 100 71.6584
119.344 100 72.3711
121.279 100 73.0738
123.02 100 73.255
124.807 100 75.2029
125.902 100 75.5138
126.92 100 75.6339
127.653 100 76.5723
128.132 100 77.7939
129.99 100 77.4029
130.207 100 78.6245
130.968 100 79.9174
132.945 100 81.4634
134.163 100 81.2266
135.467 100 80.9628
136.611 100 80.7419
137.516 100 80.0666
138.751 100 79.9997
139.846 100 79.8386
140.9 100 79.5026
141.957 100 79.4479
143.589 100 79.1754
144.799 100 79.9336
145.857 100 79.4807
78.8165 100 80.7075
79.8709 100 81.1409
80.6448 100 80.4197
81.6899 100 80.3558
82.7595 100 80.4837
83.8835 100 80.6442
85.0483 100 80.8896
86.2133 100 80.9571
87.1475 100 81.7317
88.2974 100 81.8037
89.3809 100 82.0546
90.7108 100 82.2387
92.6723 100 81.6293
93.7868 100 80.9739
94.7439 100 79.7855
95.2092 100 78.1665
97.4416 100 78.6144
97.4398 100 77.4962
98.2901 100 76.6254
99.5234 100 76.3335
100.516 100 74.4439
102.501 100 73.9227
103.907 100 73.9016
105.015 100 73.6621
106.029 100 72.95
107.386 100 72.4709
108.508 100 72.6912
109.551 100 73.0408
111.537 100 72.0821
111.157 100 70.975
113.335 100 70.975
112.956 100 72.0821
114.941 100 73.0408
115.984 100 72.6912
117.107 100 72.4709
118.464 100 72.95
119.478 100 73.662
120.585 100 73.9016
121.991 100 73.9227
123.977 100 74.4439
124.969 100 76.3335
126.202 100 76.6254
127.053 100 77.4962
127.051 100 78.6144
129.283 100 78.1666
129.749 100 79.7855
130.706 100 80.9739
131.82 100 81.6293
133.782 100 82.2387
135.111 100 82.0546
136.195 100 81.8037
137.345 100 81.7317
138.279 100 80.9571
139.444 100 80.8896
140.609 100 80.6442
141.733 100 80.4837
142.803 100 80.3558
143.848 100 80.4197
144.621 100 81.1409
145.676 100 80.7075
78.8408 100 81.8695
79.8615 100 82.3882
80.8783 100 81.7422
81.9773 100 81.6537
83.063 100 81.8569
84.3255 100 81.6763
85.3466 100 82.0302
86.3091 100 82.496
87.4609 100 82.8262
88.6156 100 82.9366
89.6593 100 83.1924
91.7619 100 82.4768
93.1828 100 82.6248
94.1062 100 82.0135
94.9721 100 81.0923
95.9517 100 79.0025
98.1966 100 79.5246
98.7418 100 78.3108
99.2962 100 77.3987
100.618 100 75.7521
101.655 100 74.86
102.963 100 74.9427
104.623 100 74.7087
106.038 100 74.1109
107.1 100 73.5971
108.835 100 73.8712
110.076 100 74.1848
110.691 100 73.166
110.696 100 74.9877
111.253 100 74.0776
113.239 100 74.0776
113.797 100 74.9877
113.801 100 73.1661
114.417 100 74.1848
115.657 100 73.8712
117.392 100 73.5971
118.454 100 74.1109
119.87 100 74.7087
121.529 100 74.9427
122.837 100 74.86
123.874 100 75.7521
125.196 100 77.3987
125.751 100 78.3108
126.296 100 79.5246
128.541 100 79.0025
129.52 100 81.0923
130.386 100 82.0135
131.31 100 82.6248
132.73 100 82.4768
134.833 100 83.1924
135.877 100 82.9366
137.032 100 82.8262
138.183 100 82.496
139.146 100 82.0302
140.167 100 81.6763
141.429 100 81.8569
142.515 100 81.6537
143.614 100 81.7422
144.631 100 82.3882
145.652 100 81.8695
78.9176 100 83.0826
79.9415 100 83.4635
80.9528 100 82.9352
81.7903 100 83.7285
82.3181 100 82.7777
83.4513 100 82.9464
84.5499 100 82.7187
85.5774 100 83.2657
86.6715 100 83.8561
87.8199 100 83.9032
89.0273 100 84.0833
90.1976 100 84.2615
90.9431 100 83.3598
92.2526 100 83.5929
93.3089 100 83.6124
94.4304 100 83.0204
96.5825 100 79.8701
99.2264 100 79.3153
99.8619 100 78.4209
100.376 100 77.3865
101.561 100 76.7934
102.229 100 75.8103
103.876 100 75.7122
105.625 100 75.0437
106.767 100 75.0836
107.872 100 74.7776
107.81 100 75.8237
109.627 100 75.8086
110.654 100 76.1358
111.684 100 75.654
112.808 100 75.6538
113.838 100 76.1358
114.866 100 75.8086
116.682 100 75.8237
116.62 100 74.7776
117.725 100 75.0835
118.868 100 75.0437
120.616 100 75.7122
122.263 100 75.8103
122.932 100 76.7934
124.117 100 77.3865
124.63 100 78.4209
125.266 100 79.3153
127.91 100 79.8701
130.062 100 83.0204
131.184 100 83.6124
132.24 100 83.5929
133.549 100 83.3598
134.295 100 84.2615
135.465 100 84.0833
136.673 100 83.9032
137.821 100 83.8561
138.915 100 83.2657
139.942 100 82.7187
141.041 100 82.9464
142.174 100 82.7777
142.702 100 83.7285
143.54 100 82.9352
144.551 100 83.4635
145.575 100 83.0826
78.6909 100 84.1748
79.6574 100 84.5754
80.7491 100 84.1316
81.835 100 84.8456
83.0425 100 84.0253
84.2045 100 83.7801
85.0062 100 84.5006
86.0732 100 84.9117
87.1325 100 84.9396
88.2531 100 85.0924
89.3255 100 85.2709
90.4188 100 85.3195
91.5575 100 84.9919
92.9049 100 84.7198
94.3983 100 84.1366
95.625 100 82.2427
96.5798 100 81.0611
97.4949 100 80.42
100.213 100 79.821
101.168 100 78.2474
[...]
POINT_DATA 1600
SCALARS mass double
LOOKUP_TABLE default
1
1
1
1
1
1
1
1
1
1
1
1
1
1
1
1
1
1
1
1
1
1
1
1
1
1
1
1
1
1
1
1
1
1
1
1
1
1
1
1
1
1
1
1
1
1
1
1
1
1
1
1
1
1
1
1
1
1
1
1
1
1
1
1
1
1
1
1
1
1
1
1
1
1
1
1
1
1
1
1
1
1
1
1
1
1
1
1
1
1
1
1
1
1
1
1
1
1
1
1
1
1
1
1
1
1
1
1
1
1
1
1
1
1
1
1
1
1
1
1
1
1
1
1
1
1
1
1
1
1
1
1
1
1
1
1
1
1
1
1
1
1
1
1
1
1
1
1
1
1
1
1
1
1
1
1
1
1
1
1
1
1
1
1
1
1
1
1
1
1
1
1
1
1
1
1
1
1
1
1
1
1
1
1
1
1
1
1
1
1
1
1
1
1
1
1
1
1
1
1
1
1
1
1
1
1
1
1
1
1
1
1
1
1
1
1
1
1
1
1
1
1
1
1
1
1
1
1
1
1
1
1
1
1
1
1
1
1
1
1
1
1
1
1
1
1
1
1
1
1
1
1
1
1
1
1
1
1
1
1
1
1
1
1
1
1
1
1
1
1
1
1
1
1
1
1
1
1
1
1
1
1
1
1
1
1
1
1
1
1
1
1
1
1
1
1
1
1
1
1
1
1
1
1
1
1
1
1
1
1
1
1
1
1
1
1
1
1
1
1
1
1
1
1
1
1
1
1
1
1
1
1
1
1
1
1
1
1
1
1
1
1
1
1
1
1
1
1
1
1
1
1
1
1
1
1
1
1
1
1
1
1
1
1
1
1
1
1
1
1
1
1
1
1
1
1
1
1
1
1
1
1
1
1
1
1
1
1
1
1
1
1
1
1
1
1
1
1
1
1
1
1
1
1
1
1
1
1
1
1
1
1
1
1
1
1
1
1
1
1
1
1
1
1
1
1
1
1
1
1
1
1
1
1
1
1
1
1
1
1
1
1
1
1
1
1
1
1
1
1
1
1
1
1
1
1
1
1
1
1
1
1
1
1
1
1
1
1
1
1
1
1
1
1
1
1
1
1
1
1
1
1
1
1
1
1
1
1
1
1
1
1
1
1
1
1
1
1
1
1
1
1
1
1
1
1
1
1
1
1
1
1
1
1
1
1
1
1
1
1
1
1
1
1
1
1
1
1
1
1
1
1
1
1
1
1
1
1
1
1
1
1
1
1
1
1
1
1
1
1
1
1
1
1
1
1
1
1
1
1
1
1
1
1
1
1
1
1
1
1
1
1
1
1
1
1
1
1
1
1
1
1
1
1
1
1
1
1
1
1
1
1
1
1
1
1
1
1
1
1
1
1
1
1
1
1
1
1
1
1
1
1
1
1
1
1
1
1
1
1
1
1
1
1
1
1
1
1
1
1
1
1
1
1
1
1
1
1
1
1
1
1
1
1
1
1
1
1
1
1
1
1
1
1
1
1
1
1
1
1
1
1
1
1
1
1
1
1
1
1
1
1
1
1
1
1
1
1
1
1
1
1
1
1
1
1
1
1
1
1
1
1
1
1
1
1
1
1
1
1
1
1
1
1
1
1
1
1
1
1
1
1
1
1
1
1
1
1
1
1
1
1
1
1
1
1
1
1
1
1
1
1
1
1
1
1
1
1
1
1
1
1
1
1
1
1
1
1
1
1
1
1
1
1
1
1
1
1
1
1
1
1
1
1
1
1
1
1
1
1
1
1
1
1
1
1
1
1
1
1
1
1
1
1
1
1
1
1
1
1
1
1
1
1
1
1
1
1
1
1
1
1
1
1
1
1
1
1
1
1
1
1
1
1
1
1
1
1
1
1
1
1
1
1
1
1
1
1
1
1
1
1
1
1
1
1
1
1
1
1
1
1
1
1
1
1
1
1
1
1
1
1
1
1
1
1
1
1
1
1
1
1
1
1
1
1
1
1
1
1
1
1
1
1
1
1
1
1
1
1
1
1
1
1
1
1
1
1
1
1
1
1
1
1
1
1
1
1
1
1
1
1
1
1
1
1
1
1
1
1
1
1
1
1
1
1
1
1
1
1
1
1
1
1
1
1
1
1
1
1
1
1
1
1
1
1
1
1
1
1
1
1
1
1
1
1
1
1
1
1
1
1
1
1
1
1
1
1
1
1
1
1
1
1
1
1
1
1
1
1
1
1
1
1
1
1
1
1
1
1
1
1
1
1
1
1
1
1
1
1
1
1
1
1
1
1
1
1
1
1
1
1
1
1
1
1
1
1
1
1
1
1
1
1
1
1
1
1
1
1
1
1
1
1
1
1
1
1
1
1
1
1
1
1
1
1
1
1
1
1
1
1
1
1
1
1
1
1
1
1
1
1
1
1
1
1
1
1
1
1
1
1
1
1
1
1
1
1
1
1
1
1
1
1
1
1
1
1
1
1
1
1
1
1
1
1
1
1
1
1
1
1
1
1
1
1
1
1
1
1
1
1
1
1
1
1
1
1
1
1
1
1
1
1
1
1
1
1
1
1
1
1
1
1
1
1
1
1
1
1
1
1
1
1
1
1
1
1
1
1
1
1
1
1
1
1
1
1
1
1
1
1
1
1
1
1
1
1
1
1
1
1
1
1
1
1
1
1
1
1
1
1
1
1
1
1
1
1
1
1
1
1
1
1
1
1
1
1
1
1
1
1
1
1
1
1
1
1
1
1
1
1
1
1
1
1
1
1
1
1
1
1
1
1
1
1
1
1
1
1
1
1
1
1
1
1
1
1
1
1
1
1
1
1
1
1
1
1
1
1
1
1
1
1
1
1
1
1
1
1
1
1
1
1
1
1
1
1
1
1
1
1
1
1
1
1
1
1
1
1
1
1
1
1
1
1
1
1
1
1
1
1
1
1
1
1
1
1
1
1
1
1
1
1
1
1
1
1
1
1
1
1
1
1
1
1
1
1
1
1
1
1
1
1
1
1
1
1
1
1
1
1
1
1
1
1
1
1
1
1
1
1
1
1
1
1
1
1
1
1
1
1
1
1
1
1
1
1
1
1
1
1
1
1
1
1
1
1
1
1
1
1
1
1
1
1
1
1
1
1
1
1
1
1
1
1
1
1
1
1
1
1
1
1
1
1
1
1
1
1
1
1
1
1
1
1
1
1
1
1
1
1
1
1
1
1
1
1
1
1
1
1
1
1
1
1
1
1
1
1
1
1
1
1
1
1
1
1
1
1
1
1
1
1
1
1
1
1
1
1
1
1
1
1
1
1
1
1
1
1
1
1
1
1
1
1
1
1
1
1
1
1
1
1
1
1
1
1
1
1
1
1
1
1
1
1
1
1
1
1
1
1
1
1
1
1
1
1
1
1
1
1
1
1
1
1
1
1
1
1
1
1
1
1
1
1
1
1
1
1
1
1
1
1
1
1
1
1
1
1
1
1
1
1
1
1
1
1
1
1
1
1
1
1
1
1
1
1
1
1
1
1
1
1
1
1
1
1
1
1
1
1
1
1
1
1
1
1
1
1
1
1
1
1
1
1
1
1
1
1
1
1
1
1
1
1
1
1
1
1
1
1
1
1
1
1
1
1
1
1
1
1
1
1
1
1
1
1
1
1
VECTORS force double
-6.31333 0 -12.9168
12.6583 0 -1.17916
-20.469 0 13.2585
-9.87982 0 3.98014
0.851479 0 10.0634
-39.1084 0 -65.6244
36.0008 0 -31.1956
-3.41527 0 7.39402
-3.09036 0 11.8989
-5.1089 0 11.5439
11.731 0 10.0455
-108.457 0 -11.7341
13.539 0 14.1857
4.04765 0 1.22218
7.28734 0 16.126
9.05702 0 1.74302
-18.3708 0 2.38494
12.8654 0 15.7029
-2.9751 0 7.2627
1.69215 0 7.30448
22.1947 0 -77.0977
5.91592 0 -9.94756
-17.6653 0 91.066
0.198004 0 -18.8261
4.27918 0 17.6838
7.64153 0 1.67473
5.533 0 7.77717
1.29493 0 8.67969
1.125 0 3.14724
-80.6087 0 18.6527
80.6087 0 18.6528
-1.12489 0 3.14719
-1.29501 0 8.67972
-5.53302 0 7.77714
-7.64153 0 1.67473
-4.27918 0 17.6838
-0.198004 0 -18.8261
17.6653 0 91.066
-5.91592 0 -9.94756
-22.1947 0 -77.0977
-1.69199 0 7.30455
2.97511 0 7.26272
-12.8657 0 15.703
18.3712 0 2.3848
-9.057 0 1.743
-7.28734 0 16.126
-4.04765 0 1.22219
-13.539 0 14.1857
108.456 0 -11.7339
-11.731 0 10.0455
5.10889 0 11.5439
3.09036 0 11.8989
3.41527 0 7.39402
-36.0008 0 -31.1957
39.1084 0 -65.6243
-0.85147 0 10.0634
9.87982 0 3.98014
20.469 0 13.2585
-12.6583 0 -1.17915
6.31334 0 -12.9168
-6.2365 0 11.9745
26.3513 0 25.2619
16.9187 0 15.4068
1.65302 0 -8.14788
-15.726 0 -23.5244
-6.3826 0 127.512
6.55845 0 13.1584
-13.781 0 13.7335
-6.46383 0 -13.6082
29.5727 0 -0.753481
6.30143 0 4.72922
-21.3077 0 8.84267
-93.6393 0 -102.05
1.99024 0 13.072
-1.92897 0 5.32443
-7.62979 0 5.16119
7.31191 0 -10.7992
8.88129 0 8.84688
0.0185846 0 0.847962
-2.08711 0 -1.5849
7.95504 0 -3.07705
0.490088 0 0.3467
2.59945 0 3.21364
-0.963168 0 -14.4617
-14.4104 0 9.4926
-18.9077 0 -11.3114
-13.765 0 11.0562
-8.0595 0 -39.541
-46.7449 0 -26.007
-150.041 0 6.64096
150.041 0 6.64088
46.7451 0 -26.0072
8.05904 0 -39.5408
13.7649 0 11.0562
18.9077 0 -11.3114
14.4104 0 9.4926
0.963168 0 -14.4617
-2.59959 0 3.21373
-0.490085 0 0.346698
-7.95504 0 -3.07705
2.08805 0 -1.58648
-0.0196125 0 0.848262
-8.88128 0 8.84685
-7.31194 0 -10.7992
7.62977 0 5.16119
1.92896 0 5.3244
-1.99022 0 13.072
93.6391 0 -102.05
21.3077 0 8.84262
-6.30143 0 4.72922
-29.5727 0 -0.753483
6.46384 0 -13.6082
13.781 0 13.7335
-6.55845 0 13.1584
6.38265 0 127.512
15.726 0 -23.5243
-1.65301 0 -8.14789
-16.9188 0 15.4068
-26.3513 0 25.2619
6.2365 0 11.9745
18.123 0 -2.02386
19.0959 0 -37.223
-3.68782 0 -10.7076
0.342446 0 -19.3163
5.97414 0 23.7119
15.6427 0 41.5023
4.25892 0 -10.9856
-6.73665 0 -19.6547
-19.7134 0 -0.033262
-19.5534 0 8.75661
5.70507 0 -2.95959
9.09238 0 5.6035
-7.51217 0 0.402552
56.7571 0 45.9256
-6.01334 0 -9.98646
5.93388 0 5.20574
6.81719 0 7.76168
-3.37833 0 3.29998
-1.11971 0 9.41183
-17.5367 0 -0.462596
-14.7242 0 9.06718
0.764838 0 1.90272
-50.2442 0 39.2092
50.6832 0 -19.4157
2.71918 0 8.20935
-9.96416 0 -0.00488717
-5.98696 0 5.91614
1.77644 0 15.6838
59.6403 0 11.9868
36.5652 0 28.5598
-36.5654 0 28.5599
-59.6397 0 11.9865
-1.77738 0 15.6847
5.98715 0 5.91621
9.96476 0 -0.00464728
-2.71897 0 8.20873
-50.6785 0 -19.4112
50.2338 0 39.2093
-0.764833 0 1.90276
14.7248 0 9.06735
17.5361 0 -0.461672
1.11975 0 9.41199
3.37831 0 3.30009
-6.81718 0 7.76167
-5.93387 0 5.20573
6.01333 0 -9.98652
-56.7563 0 45.9254
7.51223 0 0.4026
-9.09237 0 5.6035
-5.70507 0 -2.95958
19.5534 0 8.75661
19.7134 0 -0.0332585
6.73665 0 -19.6547
-4.25891 0 -10.9856
-15.6427 0 41.5023
-5.97414 0 23.7119
-0.342447 0 -19.3163
3.68782 0 -10.7076
-19.0959 0 -37.223
-18.123 0 -2.02386
-11.4341 0 11.0869
13.3538 0 11.363
-9.34588 0 -8.00102
9.22645 0 2.84082
1.98374 0 -16.7666
-4.00632 0 -7.93167
7.7781 0 11.7496
2.93756 0 8.51169
10.4817 0 10.3715
-3.62959 0 2.23907
-12.5117 0 -13.2079
-0.566659 0 7.21362
-21.6534 0 -83.9816
29.1865 0 -3.74532
123.76 0 34.4578
-9.58799 0 -8.3705
-2.05828 0 -15.7374
4.13837 0 5.9245
-57.5977 0 -110.329
-20.5867 0 -26.2279
-48.8956 0 21.0753
19.5946 0 6.8877
13.0605 0 -0.864823
11.995 0 -5.53985
11.3661 0 16.0756
5.71524 0 -5.59802
7.84931 0 -37.465
17.4224 0 12.475
-2.92347 0 -35.3253
-8.47034 0 -16.1481
8.47033 0 -16.1481
2.92015 0 -35.329
-17.4225 0 12.4747
-7.84762 0 -37.4668
-5.71469 0 -5.59707
-11.3612 0 16.0711
-11.9945 0 -5.53973
-13.061 0 -0.864909
-19.5954 0 6.88908
48.8961 0 21.0737
20.5877 0 -26.2298
57.5985 0 -110.332
-4.13823 0 5.9244
2.0582 0 -15.7372
9.5879 0 -8.37068
-123.76 0 34.4578
-29.1867 0 -3.74519
21.6533 0 -83.9813
0.566558 0 7.21358
12.5118 0 -13.2079
3.62958 0 2.23907
-10.4817 0 10.3715
-2.93755 0 8.5117
-7.77811 0 11.7497
4.00632 0 -7.93167
-1.98374 0 -16.7666
-9.22645 0 2.84082
9.34588 0 -8.00101
-13.3538 0 11.363
11.4341 0 11.0869
16.9363 0 7.34082
-27.1483 0 -2.14765
-8.95009 0 28.7181
-55.3691 0 -37.407
26.9339 0 22.8404
7.31999 0 -20.9359
7.42634 0 -40.9288
-12.6653 0 5.03334
2.39121 0 6.39499
12.5469 0 -12.7864
-5.12517 0 -16.4715
-16.7225 0 -70.5021
-1.85269 0 -12.217
-55.5693 0 28.8362
-47.272 0 -34.305
7.39836 0 21.9227
-0.412378 0 4.79069
-80.9279 0 12.7471
135.343 0 108.437
-20.7274 0 1.35565
47.5702 0 -0.401887
-10.3424 0 -16.9917
-36.6606 0 -14.4088
7.1914 0 -9.42641
-11.8543 0 -5.18792
-23.2908 0 32.2917
-56.7971 0 -20.4918
27.6269 0 -36.6911
-16.9434 0 49.0858
10.3107 0 -2.84148
-10.308 0 -2.84027
16.9445 0 49.0878
-27.6265 0 -36.6902
56.7959 0 -20.492
23.2888 0 32.2907
11.854 0 -5.18916
-7.19244 0 -9.42806
36.6641 0 -14.4082
10.34 0 -16.9881
-47.5697 0 -0.402179
20.7245 0 1.35872
-135.346 0 108.439
80.9296 0 12.7473
0.412564 0 4.79028
-7.39842 0 21.9228
47.2723 0 -34.305
55.5696 0 28.8363
1.8528 0 -12.2175
16.7224 0 -70.5021
5.12523 0 -16.4716
-12.5469 0 -12.7864
-2.3912 0 6.39497
12.6653 0 5.03335
-7.42632 0 -40.9288
-7.32001 0 -20.9359
-26.9338 0 22.8404
55.3691 0 -37.407
8.95009 0 28.7181
27.1483 0 -2.14765
-16.9363 0 7.34082
11.5688 0 -8.11767
-31.6026 0 33.6587
7.30133 0 -10.4526
29.4611 0 -8.16223
35.5578 0 40.2696
-2.05129 0 -0.211039
18.8936 0 -13.0876
14.3388 0 34.4495
2.65043 0 -12.0924
-16.9127 0 15.1373
16.4819 0 4.04301
-24.3758 0 16.8596
19.1129 0 83.7347
-6.66095 0 2.37894
-9.4047 0 -1.94345
104.901 0 -2.77713
2.40473 0 7.50878
16.9486 0 -2.74156
1.41856 0 -1.88648
-0.829456 0 -20.8487
32.1961 0 11.5664
-14.2671 0 6.06799
-10.3129 0 6.46123
9.31414 0 -14.4616
39.0435 0 28.4826
-5.05011 0 2.31164
-9.20975 0 -7.13938
35.3236 0 14.638
2.44317 0 -1.61347
-6.15094 0 15.9322
6.1508 0 15.932
-2.44322 0 -1.61407
-35.3184 0 14.6431
9.21009 0 -7.13951
5.05108 0 2.31756
-39.0448 0 28.483
-9.31449 0 -14.4601
10.3153 0 6.45831
14.2667 0 6.06863
-32.1967 0 11.5676
0.829665 0 -20.8488
-1.41851 0 -1.88643
-16.9488 0 -2.74099
-2.40513 0 7.50875
-104.901 0 -2.77714
9.40472 0 -1.94341
6.66071 0 2.37981
-19.1129 0 83.7346
24.3757 0 16.86
-16.482 0 4.04302
16.9128 0 15.1373
-2.65047 0 -12.0925
-14.3388 0 34.4495
-18.8936 0 -13.0876
2.05129 0 -0.211016
-35.5578 0 40.2696
-29.4611 0 -8.16223
-7.30134 0 -10.4526
31.6026 0 33.6587
-11.5688 0 -8.11767
17.0759 0 -0.484712
7.42333 0 -28.7116
-22.7477 0 1.73637
3.1071 0 -7.53974
17.1942 0 1.90404
-53.9111 0 -9.3717
29.318 0 -35.83
57.0866 0 -7.41754
-2.79124 0 -2.15977
-29.6758 0 -1.96508
45.8204 0 -7.31178
44.1785 0 71.3933
-23.5853 0 -117.731
3.35664 0 -30.1882
-11.8942 0 6.14622
-12.0147 0 -26.9964
-60.9702 0 -37.3434
-31.4348 0 27.8354
-13.5269 0 -9.48145
17.3961 0 6.17433
-2.5185 0 -12.6508
3.83211 0 4.60131
-25.9779 0 14.3652
45.3117 0 -74.1704
-10.6268 0 0.99925
-6.85807 0 4.83486
-57.1015 0 -92.6787
-11.737 0 16.6296
42.0112 0 111.304
17.4743 0 1.00606
-17.463 0 1.00373
-42.0155 0 111.298
11.7267 0 16.6423
57.1046 0 -92.6882
6.85564 0 4.83239
10.6249 0 0.995926
-45.3114 0 -74.1685
25.9752 0 14.3648
-3.83029 0 4.60217
2.51892 0 -12.651
-17.3939 0 6.17295
13.5264 0 -9.48193
31.435 0 27.8352
60.9774 0 -37.3482
12.0144 0 -26.9962
11.8942 0 6.14617
-3.35661 0 -30.1889
23.5857 0 -117.731
-44.1784 0 71.3932
-45.8204 0 -7.31174
29.6758 0 -1.96508
2.79125 0 -2.15977
-57.0865 0 -7.41749
-29.318 0 -35.83
53.911 0 -9.37171
-17.1942 0 1.90405
-3.10708 0 -7.53975
22.7477 0 1.73637
-7.42332 0 -28.7116
-17.0759 0 -0.484713
-0.610101 0 -20.5874
-23.6719 0 1.52311
-1.92342 0 -0.910708
0.660581 0 8.32865
8.85514 0 -21.1916
-8.22308 0 -5.04134
-16.1996 0 53.4526
-28.6705 0 24.5081
-2.65017 0 -2.71074
10.0393 0 9.84465
-16.1406 0 19.1264
-15.8062 0 -25.3548
0.0646124 0 -4.97389
-40.1956 0 -7.97789
69.5932 0 136.887
4.15451 0 33.4589
-6.29042 0 9.7205
27.3038 0 8.69774
16.0372 0 -14.9976
24.9793 0 -1.70765
-1.01587 0 4.2991
6.74183 0 16.5797
-12.5072 0 -16.5871
2.64076 0 81.0162
0.0722992 0 -6.51629
0.65355 0 -56.9628
-9.22445 0 40.9899
-12.5829 0 -9.6936
24.3309 0 18.6981
-9.84237 0 -5.50228
9.84848 0 -5.48228
-24.3465 0 18.7021
12.5905 0 -9.69847
9.22139 0 40.9994
-0.651777 0 -56.9669
-0.0741448 0 -6.5179
-2.63696 0 81.0148
12.508 0 -16.5907
-6.74332 0 16.578
1.01571 0 4.2988
-24.9789 0 -1.70693
-16.037 0 -14.9968
-27.3116 0 8.69667
6.29023 0 9.72059
-4.15462 0 33.459
-69.5927 0 136.887
40.1949 0 -7.97787
-0.0645837 0 -4.97411
15.8062 0 -25.3549
16.1406 0 19.1264
-10.0393 0 9.84465
2.65017 0 -2.71075
28.6704 0 24.508
16.1996 0 53.4526
8.2231 0 -5.04135
-8.85516 0 -21.1916
-0.660561 0 8.32867
1.9234 0 -0.910686
23.6719 0 1.52312
0.610094 0 -20.5874
-33.6449 0 -8.28056
57.2493 0 19.4828
34.2995 0 37.244
21.2599 0 -9.46247
-6.23858 0 -3.44924
-19.6267 0 -8.33321
16.1417 0 14.2332
-30.9352 0 -1.59318
37.7214 0 0.270771
-16.1995 0 -9.69614
-19.3793 0 -58.0265
9.14929 0 -5.64279
-8.45261 0 -11.0864
-5.47088 0 -14.5578
4.63491 0 9.15912
-15.54 0 -1.7764
-1.85876 0 2.19753
34.4939 0 20.011
-21.4362 0 -82.4726
-14.2976 0 7.8042
10.3484 0 -8.94187
6.18063 0 -5.44259
5.42413 0 19.8291
-10.5151 0 1.04536
73.4158 0 -85.3587
15.4934 0 7.36376
9.67829 0 13.5589
-10.6654 0 -3.13801
18.3068 0 4.89071
-18.625 0 6.58653
18.6208 0 6.57584
-18.3196 0 4.90202
10.6757 0 -3.14479
-9.67428 0 13.5535
-15.4976 0 7.35956
-73.4041 0 -85.3594
10.5162 0 1.04385
-5.42651 0 19.8313
-6.18053 0 -5.44145
-10.3478 0 -8.94414
14.2977 0 7.80413
21.4358 0 -82.4663
-34.4932 0 20.0118
1.8588 0 2.1971
15.5402 0 -1.77637
-4.63498 0 9.15932
5.47082 0 -14.5573
8.45257 0 -11.0863
-9.14932 0 -5.64271
19.3794 0 -58.0268
16.1996 0 -9.69616
-37.7215 0 0.270782
30.9352 0 -1.59317
-16.1417 0 14.2332
19.6267 0 -8.33321
6.23858 0 -3.44924
-21.2599 0 -9.46249
-34.2995 0 37.244
-57.2494 0 19.4828
33.6451 0 -8.28056
13.6761 0 -10.5265
-16.5859 0 19.2089
-2.92598 0 -11.9431
7.81684 0 6.1163
-3.56359 0 8.45261
6.85176 0 -17.3488
-0.932155 0 9.32235
-4.83791 0 -5.66118
6.71786 0 3.22806
-6.05022 0 -17.8051
-18.4373 0 -33.6318
27.8793 0 2.84106
43.7942 0 -20.4225
1.12767 0 24.3568
5.76693 0 14.6308
-6.77859 0 8.09629
-11.5837 0 2.44495
8.95419 0 -5.41958
-8.5807 0 -2.56526
23.8784 0 33.6588
-2.39755 0 -22.1844
-4.01942 0 -22.4409
1.47652 0 -10.2242
-52.7266 0 -6.84727
-19.7774 0 83.9679
25.2169 0 14.7488
4.44962 0 -25.8985
-26.7 0 -39.3412
3.58237 0 -1.51143
-0.770064 0 -6.29994
0.772378 0 -6.31485
-3.58497 0 -1.50192
26.6866 0 -39.3193
-4.4922 0 -25.9105
-25.2215 0 14.7415
19.7859 0 83.9659
52.7193 0 -6.84712
-1.47585 0 -10.2232
4.02166 0 -22.4414
2.39352 0 -22.1843
-23.8785 0 33.6606
8.57979 0 -2.56145
-8.95482 0 -5.41867
11.5835 0 2.44533
6.77866 0 8.09625
-5.7668 0 14.6303
-1.12765 0 24.3567
-43.7942 0 -20.4227
-27.8793 0 2.8412
18.4374 0 -33.6318
6.05019 0 -17.8051
-6.71784 0 3.2281
4.83792 0 -5.66119
0.932127 0 9.32235
-6.85174 0 -17.3488
3.5636 0 8.45259
-7.81685 0 6.11631
2.926 0 -11.9431
16.5859 0 19.2089
-13.6761 0 -10.5265
-25.8524 0 -74.0227
-6.58693 0 -7.76964
11.7734 0 19.2598
-1.6928 0 -13.0469
-14.4317 0 -15.0592
-25.5615 0 -10.4863
3.0487 0 26.404
45.8169 0 -77.2009
19.6647 0 21.3247
6.70653 0 6.9585
-15.2074 0 80.0609
-17.2718 0 58.3413
20.3466 0 11.5462
-4.74501 0 -4.9339
-2.39317 0 -2.64137
-1.58436 0 6.63563
-5.58714 0 -10.6072
2.2913 0 -5.87258
-0.293162 0 6.65464
6.0022 0 -11.4862
22.2711 0 92.6123
-9.71393 0 -0.292476
-16.6053 0 17.4786
-15.3257 0 0.335567
-42.7591 0 -43.2579
-11.2589 0 1.07551
-35.6536 0 12.6652
42.6462 0 32.9174
-7.42873 0 -12.0148
-0.63993 0 -3.24388
0.645578 0 -3.23084
7.41722 0 -12.0237
-42.6097 0 32.8901
35.6659 0 12.6802
11.2643 0 1.09021
42.7473 0 -43.2552
15.3293 0 0.332653
16.6 0 17.4855
9.7205 0 -0.304607
-22.264 0 92.6051
-6.00222 0 -11.4861
0.293032 0 6.65416
-2.29037 0 -5.87373
5.58706 0 -10.6072
1.58439 0 6.63563
2.39307 0 -2.64113
4.74501 0 -4.934
-20.3467 0 11.5463
17.2717 0 58.3415
15.2074 0 80.0609
-6.70649 0 6.9584
-19.6648 0 21.3248
-45.8166 0 -77.201
-3.04913 0 26.4041
25.5615 0 -10.4864
14.4317 0 -15.0591
1.69282 0 -13.0469
-11.7733 0 19.2598
6.5869 0 -7.76962
25.8524 0 -74.0227
4.20916 0 20.6787
1.16027 0 -1.64982
15.0378 0 8.41856
-4.81786 0 6.98704
1.01216 0 -8.3208
-49.5087 0 -86.7926
45.8666 0 100.465
-24.8287 0 45.1693
-6.88654 0 -3.95251
-54.5635 0 -0.188066
57.3202 0 5.3151
0.212207 0 -5.06062
2.73029 0 0.579118
-32.2429 0 7.47416
35.9012 0 -7.72244
-19.8673 0 5.96558
-13.4044 0 7.05057
-10.3552 0 -13.9935
-8.25046 0 1.3334
5.1226 0 -4.45919
5.90304 0 -1.33181
4.36494 0 -1.46939
8.62537 0 29.7652
20.7599 0 -6.90587
16.1395 0 13.564
37.2971 0 46.2227
-9.14489 0 2.22562
-4.76566 0 2.99601
-15.5247 0 -29.4532
-1.43635 0 4.19866
1.4375 0 4.18276
15.5374 0 -29.4401
4.77929 0 2.98983
9.14539 0 2.231
-37.2982 0 46.2217
-16.1342 0 13.5612
-20.7693 0 -6.90105
-8.62501 0 29.7731
-4.36433 0 -1.46982
-5.90279 0 -1.33194
-5.12292 0 -4.45987
8.25006 0 1.33317
10.3552 0 -13.9936
13.4043 0 7.0507
19.8682 0 5.96534
-35.9013 0 -7.72248
32.2431 0 7.47412
-2.73033 0 0.579196
-0.21217 0 -5.06063
-57.3202 0 5.31513
54.5634 0 -0.188054
6.88656 0 -3.95251
24.8287 0 45.1693
-45.8666 0 100.465
49.5089 0 -86.7926
-1.0122 0 -8.32082
4.81784 0 6.98702
-15.0378 0 8.41857
-1.1603 0 -1.64985
-4.20915 0 20.6787
43.8163 0 78.5092
-1.76651 0 -7.40722
34.649 0 -16.3914
-18.0756 0 -2.81952
11.7288 0 -15.7662
-1.50878 0 -2.12702
4.07721 0 13.9287
-10.1971 0 -23.8631
8.19976 0 15.9077
-9.11225 0 -10.7673
16.8378 0 4.62167
9.04352 0 0.367917
-0.554285 0 -48.6951
-5.33097 0 -65.7331
15.2523 0 -26.3282
-11.2632 0 13.2772
31.9195 0 -50.1956
18.0568 0 5.46485
-21.9974 0 31.5378
43.8499 0 -9.20163
21.5987 0 7.01526
-2.65638 0 -19.562
13.0981 0 -37.878
-6.88466 0 -4.02322
-8.76567 0 -26.1311
10.685 0 5.9179
6.7487 0 -2.09507
-37.92 0 -20.0471
11.4096 0 41.7157
11.7815 0 -3.81723
-11.7865 0 -3.82366
-11.4183 0 41.7106
37.9355 0 -20.0501
-6.74602 0 -2.09453
-10.6886 0 5.91565
8.76587 0 -26.1367
6.88624 0 -4.02259
-13.0974 0 -37.8726
2.65921 0 -19.5653
-21.598 0 7.0145
-43.8518 0 -9.20176
21.9986 0 31.5384
-18.0574 0 5.46506
-31.9201 0 -50.1974
11.2634 0 13.2773
-15.2532 0 -26.3291
5.33108 0 -65.7334
0.554303 0 -48.6953
-9.04356 0 0.367913
-16.8375 0 4.62164
9.11204 0 -10.7672
-8.19973 0 15.9077
10.197 0 -23.863
-4.07731 0 13.9287
1.5088 0 -2.12705
-11.7288 0 -15.7662
18.0756 0 -2.81951
-34.6491 0 -16.3914
1.76649 0 -7.4072
-43.8163 0 78.5092
-26.7405 0 24.9444
-23.4397 0 -16.0373
38.7019 0 -3.81383
17.2151 0 14.8886
-1.3687 0 -31.3832
5.96979 0 -12.2137
-13.7248 0 1.18781
15.5756 0 9.89834
-7.37528 0 -1.48867
8.01371 0 5.78282
4.28179 0 -29.0755
-19.0351 0 24.5705
-14.1332 0 37.9822
3.47932 0 45.5507
-27.582 0 -4.63089
9.23979 0 26.0577
-40.5169 0 1.83808
-62.0988 0 -44.5718
5.51128 0 5.42655
-22.9496 0 -79.4834
3.18652 0 8.828
-16.4805 0 -14.5683
-9.56683 0 7.17907
6.91166 0 26.2672
-28.8533 0 -2.01831
11.8912 0 19.3439
-8.81934 0 7.40986
-15.4919 0 -62.2214
26.0231 0 13.8393
-2.30446 0 3.85992
2.30747 0 3.86332
-26.0377 0 13.8448
15.5139 0 -62.2281
8.8107 0 7.40872
-11.9075 0 19.3452
28.8695 0 -2.01921
-6.91077 0 26.2657
9.56052 0 7.17621
16.4811 0 -14.5641
-3.18631 0 8.82893
22.9502 0 -79.4859
-5.51131 0 5.42658
62.0996 0 -44.5721
40.5176 0 1.83815
-9.23901 0 26.0594
27.5817 0 -4.631
-3.47886 0 45.5518
14.1332 0 37.9824
19.0352 0 24.5705
-4.28178 0 -29.0755
-8.01372 0 5.78285
7.37507 0 -1.48852
-15.5755 0 9.89831
13.7248 0 1.18782
-5.96976 0 -12.2137
1.36866 0 -31.3832
-17.2151 0 14.8886
-38.7019 0 -3.81383
23.4398 0 -16.0373
26.7405 0 24.9444
20.5629 0 -24.7341
-8.1562 0 -48.7726
-34.2384 0 3.98433
11.6655 0 -26.0234
-50.1418 0 30.1475
19.9396 0 21.0498
14.8476 0 7.94834
-5.93637 0 7.9862
-31.8883 0 9.89918
45.9689 0 -10.7352
-102.255 0 17.3027
94.0168 0 -9.00052
-23.9644 0 -3.7391
-13.2288 0 -29.4559
61.7459 0 21.4076
-71.9465 0 13.6178
93.2783 0 -30.7331
45.1134 0 -9.73865
57.8636 0 19.2896
-15.9796 0 69.1371
-22.9764 0 22.1685
25.1202 0 1.44046
-5.92213 0 2.42819
17.7186 0 -1.31455
16.7865 0 12.5724
12.1393 0 -49.2465
-109.457 0 -37.8042
17.3072 0 3.58832
5.80421 0 -24.9066
-2.68255 0 -6.81409
2.68261 0 -6.81131
-5.80913 0 -24.8967
-17.316 0 3.58807
109.436 0 -37.8012
-12.1319 0 -49.2378
-16.7904 0 12.5717
-17.7241 0 -1.31268
5.92321 0 2.42394
-25.1179 0 1.44058
22.9765 0 22.1689
15.9798 0 69.1396
-57.8629 0 19.2887
-45.1122 0 -9.73833
-93.2698 0 -30.7362
71.9392 0 13.6184
-61.7452 0 21.4078