# vtk DataFile Version 3.0
SiWiRVisFile
ASCII
DATASET UNSTRUCTURED_GRID
POINTS 1600 DOUBLE
76.148 100 71.7101
74.1851 100 71.7669
75.088 100 72.5581
77.1759 100 72.5151
78.4117 100 72.6617
79.0737 100 73.8279
80.0458 100 73.0721
81.127 100 73.4525
82.2136 100 74.0448
81.7623 100 72.2927
93.1111 100 63.4881
91.8175 100 63.3439
92.6419 100 64.4517
90.6541 100 63.8869
81.9101 100 64.5742
89.5957 100 56.579
91.5171 100 55.6466
90.12 100 53.3966
85.0945 100 45.4716
93.8889 100 50.0347
108.41 100 25.1934
108.411 100 23.5615
107.194 100 23.4717
107.689 100 22.4001
106.309 100 24.9976
110.751 100 25.4485
110.631 100 15.9208
114.594 100 16.2381
110.312 100 19.481
110.637 100 18.2907
111.978 100 18.1368
113.425 100 18.354
111.069 100 17.3427
114.19 100 17.2624
114.575 100 22.4464
117.745 100 25.6448
116.572 100 21.4324
115.866 100 24.2691
114.744 100 24.7141
115.867 100 25.5108
133.656 100 51.3795
139.398 100 45.4716
131.323 100 53.9268
133.6 100 54.545
135.138 100 53.7221
135.035 100 66.7617
133.815 100 63.5858
134.296 100 66.0276
132.75 100 63.0897
132.931 100 64.4357
141.964 100 72.5693
141.095 100 74.1978
142.258 100 73.7577
143.561 100 73.1762
145.547 100 73.3354
146.65 100 72.9741
147.649 100 72.5271
149.51 100 72.5872
151.204 100 71.565
148.612 100 71.979
73.1478 100 72.7119
74.1506 100 73.2226
76.1429 100 73.0056
77.0352 100 73.6648
77.9816 100 74.1425
80.1354 100 74.1993
81.2294 100 74.5788
82.342 100 75.2757
83.213 100 74.5158
84.7105 100 75.0849
85.8586 100 74.7999
92.3644 100 62.396
91.5241 100 64.5694
91.348 100 60.894
90.7586 100 56.5828
91.086 100 62.05
91.9409 100 54.6411
91.2152 100 53.3583
92.4028 100 53.6224
96.1099 100 50.9995
107.486 100 24.5355
95.4072 100 32.8464
106.905 100 37.8242
108.86 100 22.544
109.578 100 23.4956
111.314 100 24.3353
112.219 100 23.2395
110.948 100 23.2651
106.021 100 11.7899
111.368 100 19.1377
112.537 100 19.0605
118.97 100 11.8788
113.414 100 20.9171
115.647 100 20.8346
115.095 100 23.4101
115.805 100 22.5369
114.492 100 20.2333
119.615 100 38.1066
129.106 100 32.8164
116.812 100 24.9425
127.576 100 50.9726
129.493 100 51.2117
132.481 100 51.356
134.718 100 54.6671
133.499 100 62.3701
134.094 100 55.6545
132.271 100 59.7841
134.028 100 64.883
131.694 100 63.0871
138.864 100 75.1397
140.021 100 74.4664
140.863 100 75.2832
142.217 100 74.8635
143.199 100 74.2638
144.474 100 73.7958
146.575 100 74.2256
147.588 100 73.6333
148.552 100 73.2147
150.542 100 73.1207
151.529 100 72.6574
73.0625 100 73.8095
74.1857 100 74.3533
75.0888 100 73.7667
76.1062 100 74.2633
77.0437 100 74.9451
79.0669 100 74.8749
80.3174 100 75.3044
81.4078 100 75.8137
82.5369 100 76.3448
83.4813 100 75.714
85.7738 100 75.9542
84.888 100 77.4408
87.5111 100 76.8748
92.2865 100 61.3458
90.2645 100 60.4496
92.6626 100 58.2333
92.6625 100 55.5614
93.1936 100 54.4714
93.7289 100 52.7186
94.9313 100 50.5314
96.5703 100 49.9987
104.686 100 38.1867
105.771 100 37.8312
106.922 100 39.2357
95.8753 100 35.4354
107.771 100 38.5612
107.425 100 36.5547
106.301 100 36.4046
111.416 100 20.3632
112.511 100 21.5109
112.448 100 20.1236
113.513 100 19.5656
122.144 100 37.8965
116.865 100 35.0873
118.519 100 37.793
121.089 100 38.2061
118.602 100 38.9988
119.774 100 39.1306
120.912 100 39.3794
126.653 100 50.1813
132.8 100 52.337
130.819 100 52.7658
133.947 100 53.478
132.485 100 54.1087
132.608 100 56.7492
132.542 100 58.2511
132.322 100 62.0293
137.83 100 75.8329
138.867 100 76.3684
139.775 100 75.8024
140.775 100 76.4122
141.908 100 75.8812
143.181 100 75.4103
144.186 100 74.9545
145.375 100 74.5711
147.553 100 74.7344
148.508 100 74.3855
149.614 100 73.9053
150.531 100 74.6571
151.379 100 73.989
72.9175 100 75.0474
74.0858 100 75.4913
75.1189 100 75.0227
76.1074 100 75.5118
78.0589 100 75.3876
79.1059 100 75.9688
80.3571 100 76.4135
81.4969 100 76.8693
83.5956 100 76.75
84.7878 100 76.3945
84.6118 100 78.6973
86.0344 100 77.1586
86.8211 100 75.8517
92.2928 100 60.2867
91.2884 100 59.6945
90.6699 100 58.8323
93.1094 100 56.5138
91.8249 100 56.6916
93.7298 100 55.6309
94.2371 100 54.1596
94.051 100 51.3738
97.4057 100 50.7321
104.939 100 37.0101
104.439 100 42.1557
105.885 100 38.8934
106.172 100 39.9674
108.143 100 41.0402
110.026 100 40.5286
108.133 100 37.545
113.102 100 22.5172
114.543 100 21.3541
113.575 100 34.2176
115.355 100 40.1892
116.632 100 39.3554
117.738 100 39.6482
119.884 100 40.6661
118.772 100 40.0078
119.503 100 36.9634
126.439 100 51.237
129.553 100 52.5691
130.15 100 53.8039
132.895 100 55.4723
131.855 100 55.9538
131.446 100 57.0184
131.46 100 58.5598
131.847 100 60.9317
131.168 100 61.8662
137.716 100 74.6811
138.991 100 77.4411
140.032 100 77.6402
141.106 100 77.5041
142.038 100 77.0407
143.05 100 76.5375
144.197 100 76.1121
145.373 100 75.7995
146.458 100 75.3683
148.449 100 75.4368
149.547 100 75.0307
150.431 100 75.7096
151.678 100 75.1275
73.0364 100 76.1862
74.2259 100 76.6058
75.1576 100 76.041
77.2115 100 76.0339
78.144 100 76.6158
79.4215 100 77.1683
80.4917 100 77.5365
81.4925 100 77.9575
82.6924 100 77.3947
83.569 100 78.0739
84.8255 100 79.9098
88.075 100 77.8601
88.2008 100 76.0646
94.8928 100 57.4472
91.7154 100 58.7326
91.2895 100 57.6278
95.2977 100 56.2845
94.9236 100 55.1997
94.8129 100 52.9646
95.8365 100 53.267
95.2757 100 52.041
102.547 100 47.1943
104.555 100 41.0981
107.359 100 41.935
107.14 100 40.6031
108.542 100 42.1151
109.264 100 41.326
110.751 100 41.3329
107.844 100 39.7532
110.239 100 24.3023
109.52 100 25.2117
116.253 100 38.0897
113.305 100 39.7931
114.477 100 41.0692
116.721 100 40.4628
117.517 100 38.3568
117.838 100 40.6972
117.955 100 41.85
123.32 100 47.3108
128.513 100 50.52
128.487 100 51.877
129.01 100 53.7648
131.824 100 54.9003
130.744 100 56.1677
129.834 100 56.7715
130.825 100 60.8545
130.924 100 59.4815
137.935 100 77.0363
138.248 100 78.5544
139.969 100 79.701
140.595 100 78.6224
141.984 100 78.1766
142.884 100 77.6741
144.164 100 77.2555
145.228 100 76.9106
146.368 100 76.5164
147.344 100 75.9835
149.384 100 76.1334
150.127 100 76.9085
151.287 100 76.4918
73.4252 100 77.3042
74.2574 100 77.8775
75.1759 100 77.1387
76.1943 100 76.5886
77.1745 100 77.1789
78.5131 100 77.6308
79.5997 100 78.3268
80.6281 100 78.6768
81.6656 100 79.161
82.5314 100 78.4767
83.7889 100 79.4589
85.7296 100 78.1772
87.5131 100 78.9288
87.0542 100 74.7924
89.2269 100 75.6562
93.5505 100 57.5984
95.98 100 57.2294
96.964 100 56.9466
96.3598 100 56.0047
95.2876 100 54.1466
96.398 100 52.267
98.4763 100 51.1052
103.053 100 46.2398
104.31 100 44.4984
105.785 100 41.574
106.692 100 42.7571
108.085 100 44.3508
109.629 100 42.3556
112.237 100 40.2864
110.892 100 39.7496
114.299 100 39.604
113.321 100 41.2493
115.832 100 41.3053
115.212 100 42.3706
116.822 100 41.587
118.926 100 41.1174
119.056 100 42.1749
122.737 100 46.3098
125.955 100 52.2899
127.29 100 52.2302
128.232 100 52.9907
130.738 100 54.744
128.712 100 56.9465
129.352 100 57.7866
130.567 100 57.7174
136.81 100 75.4866
140.078 100 70.9084
137.444 100 79.3775
139.546 100 78.7705
141.611 100 79.2136
142.72 100 78.879
143.697 100 79.5787
143.695 100 78.4078
145.31 100 78.0418
146.369 100 77.6542
147.287 100 77.0659
148.28 100 76.6073
149.183 100 77.3792
149.984 100 78.0162
151.136 100 77.6627
72.4613 100 77.6791
73.2767 100 78.5241
75.2441 100 78.2901
76.1254 100 77.7428
77.3904 100 78.4091
77.4961 100 80.5431
79.452 100 79.3704
80.7414 100 79.7967
81.8228 100 80.219
82.7289 100 79.5818
86.2926 100 80.0859
86.9132 100 78.004
88.6665 100 79.778
88.2249 100 74.9284
94.3073 100 58.4159
94.1851 100 56.6465
95.5852 100 58.3205
97.8776 100 57.6056
96.0936 100 54.9467
97.0553 100 53.9162
97.4446 100 51.7834
100.022 100 52.2909
104.057 100 46.5421
105.59 100 42.7078
110.085 100 44.9999
108.714 100 43.378
105.118 100 47.2365
110.093 100 43.4444
104.887 100 48.3626
106.338 100 46.7451
119.593 100 48.4054
117.178 100 47.95
115.021 100 43.5702
116.034 100 47.5593
116.825 100 44.7502
116.089 100 43.0724
117.274 100 42.9521
121.518 100 47.2737
123.161 100 48.8645
126.708 100 53.0439
127.409 100 53.8071
129.582 100 54.802
128.068 100 55.973
127.877 100 58.0065
130.099 100 58.6712
129.817 100 59.7648
136.638 100 74.4011
130.751 100 78.0654
138.689 100 79.508
141.537 100 80.3531
142.582 100 79.9286
143.745 100 80.6071
144.775 100 80.0256
145.645 100 79.1222
146.682 100 79.8357
146.866 100 78.5547
148.176 100 77.7287
149.011 100 78.478
151.266 100 78.7831
152.145 100 77.9686
72.1396 100 78.9545
73.444 100 79.7943
74.2933 100 79.1006
75.313 100 79.5926
76.3117 100 78.8158
76.3789 100 80.0159
77.4339 100 79.5159
79.8241 100 80.5412
80.9988 100 81.1121
82.4453 100 81.5599
83.0313 100 80.7183
83.3699 100 81.8854
85.6411 100 79.2086
85.2722 100 80.8592
83.7498 100 82.9367
90.3255 100 78.9235
95.3708 100 60.3661
96.6805 100 58.0785
98.6464 100 55.592
97.968 100 56.4225
98.2581 100 54.3408
98.0797 100 53.2309
103.734 100 47.6101
104.97 100 43.6685
107.551 100 43.5007
108.939 100 45.1137
106.896 100 44.4794
104.381 100 49.2564
105.765 100 49.1168
107.635 100 50.2066
118.319 100 48.0051
120.581 100 49.0824
121.173 100 50.0901
118.078 100 45.1075
117.331 100 45.8903
117.787 100 43.9896
118.383 100 43.0834
122.292 100 47.994
125.606 100 53.2763
128.3 100 54.7411
127.051 100 54.9731
125.958 100 55.5441
126.673 100 57.449
128.949 100 59.0549
130.919 100 76.8057
140.716 100 82.439
140.028 100 80.8744
138.929 100 80.6101
141.1 100 81.406
141.801 100 82.3457
142.515 100 81.0319
144.854 100 81.1661
145.886 100 81.6778
145.842 100 80.5288
147.875 100 80.3321
147.881 100 79.2493
148.968 100 79.7016
150.013 100 79.1706
151.043 100 79.9137
152.393 100 79.4145
72.3869 100 80.4964
73.5052 100 80.9015
74.4531 100 80.1479
75.3806 100 80.7731
76.3462 100 82.2889
74.4253 100 83.7463
76.4388 100 81.2443
78.4871 100 80.9115
79.3444 100 81.7186
78.4375 100 82.388
81.5243 100 82.1953
81.3375 100 83.2668
82.6349 100 82.7703
83.1476 100 83.8545
84.7454 100 82.432
88.5994 100 78.7554
96.6059 100 60.2324
96.8989 100 59.0937
98.9013 100 56.908
100.444 100 54.4065
98.5452 100 52.2613
[...]
POINT_DATA 1600
SCALARS mass double
LOOKUP_TABLE default
1
1
1
1
1
1
1
1
1
1
1
1
1
1
1
1
1
1
1
1
1
1
1
1
1
1
1
1
1
1
1
1
1
1
1
1
1
1
1
1
1
1
1
1
1
1
1
1
1
1
1
1
1
1
1
1
1
1
1
1
1
1
1
1
1
1
1
1
1
1
1
1
1
1
1
1
1
1
1
1
1
1
1
1
1
1
1
1
1
1
1
1
1
1
1
1
1
1
1
1
1
1
1
1
1
1
1
1
1
1
1
1
1
1
1
1
1
1
1
1
1
1
1
1
1
1
1
1
1
1
1
1
1
1
1
1
1
1
1
1
1
1
1
1
1
1
1
1
1
1
1
1
1
1
1
1
1
1
1
1
1
1
1
1
1
1
1
1
1
1
1
1
1
1
1
1
1
1
1
1
1
1
1
1
1
1
1
1
1
1
1
1
1
1
1
1
1
1
1
1
1
1
1
1
1
1
1
1
1
1
1
1
1
1
1
1
1
1
1
1
1
1
1
1
1
1
1
1
1
1
1
1
1
1
1
1
1
1
1
1
1
1
1
1
1
1
1
1
1
1
1
1
1
1
1
1
1
1
1
1
1
1
1
1
1
1
1
1
1
1
1
1
1
1
1
1
1
1
1
1
1
1
1
1
1
1
1
1
1
1
1
1
1
1
1
1
1
1
1
1
1
1
1
1
1
1
1
1
1
1
1
1
1
1
1
1
1
1
1
1
1
1
1
1
1
1
1
1
1
1
1
1
1
1
1
1
1
1
1
1
1
1
1
1
1
1
1
1
1
1
1
1
1
1
1
1
1
1
1
1
1
1
1
1
1
1
1
1
1
1
1
1
1
1
1
1
1
1
1
1
1
1
1
1
1
1
1
1
1
1
1
1
1
1
1
1
1
1
1
1
1
1
1
1
1
1
1
1
1
1
1
1
1
1
1
1
1
1
1
1
1
1
1
1
1
1
1
1
1
1
1
1
1
1
1
1
1
1
1
1
1
1
1
1
1
1
1
1
1
1
1
1
1
1
1
1
1
1
1
1
1
1
1
1
1
1
1
1
1
1
1
1
1
1
1
1
1
1
1
1
1
1
1
1
1
1
1
1
1
1
1
1
1
1
1
1
1
1
1
1
1
1
1
1
1
1
1
1
1
1
1
1
1
1
1
1
1
1
1
1
1
1
1
1
1
1
1
1
1
1
1
1
1
1
1
1
1
1
1
1
1
1
1
1
1
1
1
1
1
1
1
1
1
1
1
1
1
1
1
1
1
1
1
1
1
1
1
1
1
1
1
1
1
1
1
1
1
1
1
1
1
1
1
1
1
1
1
1
1
1
1
1
1
1
1
1
1
1
1
1
1
1
1
1
1
1
1
1
1
1
1
1
1
1
1
1
1
1
1
1
1
1
1
1
1
1
1
1
1
1
1
1
1
1
1
1
1
1
1
1
1
1
1
1
1
1
1
1
1
1
1
1
1
1
1
1
1
1
1
1
1
1
1
1
1
1
1
1
1
1
1
1
1
1
1
1
1
1
1
1
1
1
1
1
1
1
1
1
1
1
1
1
1
1
1
1
1
1
1
1
1
1
1
1
1
1
1
1
1
1
1
1
1
1
1
1
1
1
1
1
1
1
1
1
1
1
1
1
1
1
1
1
1
1
1
1
1
1
1
1
1
1
1
1
1
1
1
1
1
1
1
1
1
1
1
1
1
1
1
1
1
1
1
1
1
1
1
1
1
1
1
1
1
1
1
1
1
1
1
1
1
1
1
1
1
1
1
1
1
1
1
1
1
1
1
1
1
1
1
1
1
1
1
1
1
1
1
1
1
1
1
1
1
1
1
1
1
1
1
1
1
1
1
1
1
1
1
1
1
1
1
1
1
1
1
1
1
1
1
1
1
1
1
1
1
1
1
1
1
1
1
1
1
1
1
1
1
1
1
1
1
1
1
1
1
1
1
1
1
1
1
1
1
1
1
1
1
1
1
1
1
1
1
1
1
1
1
1
1
1
1
1
1
1
1
1
1
1
1
1
1
1
1
1
1
1
1
1
1
1
1
1
1
1
1
1
1
1
1
1
1
1
1
1
1
1
1
1
1
1
1
1
1
1
1
1
1
1
1
1
1
1
1
1
1
1
1
1
1
1
1
1
1
1
1
1
1
1
1
1
1
1
1
1
1
1
1
1
1
1
1
1
1
1
1
1
1
1
1
1
1
1
1
1
1
1
1
1
1
1
1
1
1
1
1
1
1
1
1
1
1
1
1
1
1
1
1
1
1
1
1
1
1
1
1
1
1
1
1
1
1
1
1
1
1
1
1
1
1
1
1
1
1
1
1
1
1
1
1
1
1
1
1
1
1
1
1
1
1
1
1
1
1
1
1
1
1
1
1
1
1
1
1
1
1
1
1
1
1
1
1
1
1
1
1
1
1
1
1
1
1
1
1
1
1
1
1
1
1
1
1
1
1
1
1
1
1
1
1
1
1
1
1
1
1
1
1
1
1
1
1
1
1
1
1
1
1
1
1
1
1
1
1
1
1
1
1
1
1
1
1
1
1
1
1
1
1
1
1
1
1
1
1
1
1
1
1
1
1
1
1
1
1
1
1
1
1
1
1
1
1
1
1
1
1
1
1
1
1
1
1
1
1
1
1
1
1
1
1
1
1
1
1
1
1
1
1
1
1
1
1
1
1
1
1
1
1
1
1
1
1
1
1
1
1
1
1
1
1
1
1
1
1
1
1
1
1
1
1
1
1
1
1
1
1
1
1
1
1
1
1
1
1
1
1
1
1
1
1
1
1
1
1
1
1
1
1
1
1
1
1
1
1
1
1
1
1
1
1
1
1
1
1
1
1
1
1
1
1
1
1
1
1
1
1
1
1
1
1
1
1
1
1
1
1
1
1
1
1
1
1
1
1
1
1
1
1
1
1
1
1
1
1
1
1
1
1
1
1
1
1
1
1
1
1
1
1
1
1
1
1
1
1
1
1
1
1
1
1
1
1
1
1
1
1
1
1
1
1
1
1
1
1
1
1
1
1
1
1
1
1
1
1
1
1
1
1
1
1
1
1
1
1
1
1
1
1
1
1
1
1
1
1
1
1
1
1
1
1
1
1
1
1
1
1
1
1
1
1
1
1
1
1
1
1
1
1
1
1
1
1
1
1
1
1
1
1
1
1
1
1
1
1
1
1
1
1
1
1
1
1
1
1
1
1
1
1
1
1
1
1
1
1
1
1
1
1
1
1
1
1
1
1
1
1
1
1
1
1
1
1
1
1
1
1
1
1
1
1
1
1
1
1
1
1
1
1
1
1
1
1
1
1
1
1
1
1
1
1
1
1
1
1
1
1
1
1
1
1
1
1
1
1
1
1
1
1
1
1
1
1
1
1
1
1
1
1
1
1
1
1
1
1
1
1
1
1
1
1
1
1
1
1
1
1
1
1
1
1
1
1
1
1
1
1
1
1
1
1
1
1
1
1
1
1
1
1
1
1
1
1
1
1
1
1
1
1
1
1
1
1
1
1
1
1
1
1
1
1
1
1
1
1
1
1
1
1
1
1
1
1
1
1
1
1
1
1
1
1
1
1
1
1
1
1
1
1
1
1
1
VECTORS force double
0.413358 0 25.0525
3.41527 0 20.5651
-0.912191 0 5.89024
-2.43471 0 6.81354
-7.87845 0 14.8689
1.56119 0 -57.4229
-5.2114 0 12.3673
0.672262 0 5.75297
-15.6406 0 3.50948
-5.96085 0 11.8977
-8.24578 0 -30.9172
-4.941 0 27.7135
-16.8556 0 13.1727
7.57311 0 -9.72001
0 0 0
9.80632 0 0.463383
-7.44141 0 7.82927
-9.03789 0 0.63894
0 0 0
7.72518 0 13.0293
-5.92627 0 -6.79753
-14.8063 0 5.73642
14.7704 0 -12.6361
10.7836 0 18.801
12.7142 0 -6.09154
-11.6484 0 -24.6858
1.78578 0 6.08116
2.60882 0 -6.69474
7.37209 0 -6.11767
-14.2736 0 56.4357
-25.5616 0 -11.5618
-2.7586 0 5.26993
28.291 0 -42.3591
-9.13901 0 15.8864
1.05567 0 1.60339
-8.46863 0 -5.44086
-0.906964 0 12.5136
-8.71086 0 13.1786
21.2327 0 -8.96097
-11.9792 0 -13.9963
-16.8566 0 9.02425
0 0 0
53.3049 0 -107.036
-10.4594 0 12.8355
10.8227 0 -55.8916
35.7106 0 35.2171
-19.0389 0 3.12586
-38.5907 0 -45.5486
3.25491 0 46.434
16.0705 0 -15.364
4.96282 0 14.6425
28.0222 0 -2.66112
-29.2568 0 -25.4131
-15.0868 0 6.16119
5.25358 0 20.1345
-11.5826 0 23.6927
9.45021 0 -2.57696
16.2815 0 26.9872
-0.721129 0 7.29038
-10.0375 0 2.9181
9.46283 0 -11.3486
-18.1996 0 -8.86818
-13.7718 0 1.60034
-18.3973 0 -11.1916
32.5911 0 34.5596
5.51947 0 0.015345
-3.99119 0 18.685
18.6588 0 -39.1666
4.59888 0 21.8369
5.86583 0 18.2781
5.39363 0 16.4841
2.60853 0 34.8853
8.6843 0 -9.14944
-56.0107 0 -26.1438
-19.1704 0 -3.04083
22.2311 0 -7.18937
18.8041 0 -8.77835
24.6771 0 8.27616
-1.3731 0 1.7518
-4.21946 0 22.1171
1.07044 0 4.4065
0 0 0
7.76525 0 0.0201779
-2.36763 0 5.53086
-38.1202 0 -43.9211
17.9978 0 3.07472
-13.1517 0 1.44183
-2.87446 0 13.4309
0 0 0
23.6367 0 5.98418
-4.2142 0 -14.3764
0 0 0
26.4828 0 -25.717
-27.8292 0 -0.81654
7.16921 0 22.4709
-8.71545 0 -10.1085
-9.73954 0 5.59286
-14.3605 0 -54.7222
0 0 0
5.34811 0 -3.18609
-57.6829 0 37.7943
-19.1721 0 10.4134
-10.8783 0 -60.3877
-35.1457 0 55.9649
29.3376 0 -29.1371
-13.5409 0 -19.9432
-17.6288 0 0.758866
-8.99568 0 -5.26677
-30.9708 0 -19.7529
-11.1843 0 10.7283
-8.28184 0 23.3339
-0.646717 0 9.01298
-5.86903 0 -30.4705
36.698 0 20.0958
9.22243 0 22.1244
-15.5349 0 -15.3438
-40.4998 0 22.5341
48.0632 0 -14.8205
-20.0527 0 20.6728
7.84555 0 1.42387
21.2954 0 19.7946
-27.8346 0 15.0654
42.2813 0 -7.15571
-10.4908 0 14.1351
5.30987 0 -36.4332
7.73717 0 27.6977
-0.371879 0 -3.20388
-29.8395 0 -29.0086
-15.4642 0 -18.6754
-9.65627 0 -63.3482
-25.6492 0 -3.23358
-0.42742 0 47.6789
-31.7233 0 25.867
34.4912 0 21.0501
20.7911 0 -5.0754
8.36085 0 -9.16959
-51.6921 0 -47.9574
-27.8607 0 20.5706
0.375245 0 -1.48072
0.0833351 0 14.1429
-1.22453 0 -6.41762
14.9991 0 -7.89184
-5.64331 0 -34.0311
0.265362 0 -35.5402
0 0 0
1.16746 0 16.7157
-0.00124497 0 18.8173
-2.21535 0 12.8131
-33.5357 0 -8.92589
-12.917 0 7.10455
45.5183 0 24.9834
3.40165 0 13.3385
6.91979 0 -1.35278
0 0 0
8.61641 0 10.6967
-19.3059 0 13.6493
6.93316 0 -106.098
0.402875 0 65.9647
-9.72062 0 -11.3679
14.2902 0 -10.739
28.6522 0 57.5463
-12.9714 0 20.1388
9.17697 0 8.02143
46.1852 0 -41.0451
-2.05209 0 3.05224
-5.0278 0 -3.29908
-6.03107 0 6.39002
36.5382 0 9.38132
-33.3353 0 -16.2021
38.9009 0 -20.4003
7.01044 0 1.58597
-10.6591 0 38.2941
-1.6608 0 12.2423
14.9623 0 -12.3599
1.81619 0 0.437576
-83.1395 0 59.2089
95.5984 0 -81.9224
-3.78533 0 -10.5053
26.7596 0 -42.691
7.12305 0 -19.985
20.9152 0 -5.51609
-6.43031 0 1.84191
-7.03955 0 -105.204
18.3056 0 -22.3844
37.5699 0 -11.3304
3.58299 0 21.1371
3.05773 0 8.8177
0.642409 0 21.7223
22.1604 0 55.9578
-32.3108 0 -39.7422
10.4385 0 -8.65547
7.64699 0 -38.043
45.402 0 20.6081
-9.62666 0 -40.4006
1.94111 0 84.2161
-55.174 0 -27.691
-18.7366 0 60.109
54.8441 0 -7.56403
43.9824 0 -33.7758
-20.4603 0 -3.34838
14.248 0 -3.41247
-6.87615 0 -32.2089
10.1071 0 15.3843
15.2044 0 36.0111
-10.2961 0 10.065
-22.3975 0 40.3673
10.0198 0 9.06275
-2.02451 0 -20.632
-13.2323 0 -23.984
0.649148 0 -9.10153
-0.252825 0 -17.7677
0 0 0
-1.11924 0 13.1394
6.04127 0 -15.196
-41.5054 0 -35.2542
18.926 0 -25.6641
32.5108 0 80.7806
-7.8443 0 14.8205
9.41165 0 34.9506
-7.90423 0 7.24897
2.21447 0 -15.3933
-3.68089 0 -5.31091
-6.85674 0 29.5659
14.7558 0 5.02958
-0.952959 0 -30.8148
76.1131 0 8.64521
25.8853 0 29.8904
6.60041 0 20.9627
-35.1264 0 25.5057
14.4645 0 13.2114
-37.5695 0 24.3663
11.3405 0 -53.1187
7.85826 0 -0.380512
-1.16197 0 -1.74699
1.53299 0 -8.85063
-20.2471 0 -17.9806
-2.22827 0 53.254
-57.1805 0 6.06865
6.21221 0 49.5737
-25.0339 0 -2.85168
24.3215 0 5.42745
-8.3768 0 -12.9107
-0.0425011 0 73.2458
-45.0138 0 23.3535
12.9742 0 -26.1529
75.762 0 -49.4927
-13.697 0 -2.40209
30.6319 0 29.6869
-20.091 0 19.4881
22.1488 0 3.43356
-32.9222 0 -37.4632
-39.6822 0 -45.655
8.53589 0 -20.0107
5.14824 0 8.88788
33.6801 0 -35.8317
-8.81816 0 27.7947
-16.7923 0 14.0463
-6.18663 0 3.71641
-48.902 0 66.3601
61.3747 0 -47.0719
32.4896 0 -60.2903
6.8636 0 21.4028
14.6891 0 -24.9485
34.7217 0 -38.1455
-21.6737 0 -0.4677
-32.7072 0 24.7765
6.19453 0 -25.9307
2.38433 0 11.3579
33.6706 0 12.2764
15.7069 0 44.0228
20.3019 0 -7.62498
14.6646 0 13.6091
-101.293 0 30.7022
9.54884 0 -8.59526
-1.72842 0 6.27648
0.784765 0 20.3539
7.18642 0 48.0694
3.1442 0 3.98503
-16.4492 0 5.15627
53.7013 0 -5.69887
-2.18439 0 -8.06379
10.2387 0 14.0586
-19.209 0 29.3868
8.2128 0 -18.455
-3.12476 0 15.9119
-82.3787 0 -44.5454
-14.7282 0 30.5945
-10.1144 0 1.63857
63.4051 0 -14.2294
25.519 0 73.2982
45.6607 0 -4.4817
-114.509 0 -31.685
84.018 0 -14.5048
-16.6361 0 7.74229
12.041 0 -2.78739
-43.1504 0 -15.7611
32.7982 0 -23.2546
-33.0844 0 -3.89127
71.1642 0 -10.6094
-17.3027 0 3.25078
-48.9078 0 -54.8903
57.2679 0 44.938
10.3905 0 23.7563
-2.84215 0 22.2312
-5.82889 0 11.0068
-70.8537 0 61.5478
-9.46219 0 -64.2724
11.7506 0 5.86381
-10.4185 0 -33.4615
-4.99854 0 6.28078
21.6843 0 -6.98958
-2.41511 0 -24.7047
2.62826 0 2.16139
2.13249 0 -9.71161
-5.00435 0 -7.16651
16.3294 0 -24.1351
-76.6758 0 3.61847
72.9038 0 -10.9188
7.15803 0 19.8591
11.2389 0 36.5401
-3.55879 0 -8.18446
-12.3397 0 14.341
-27.5091 0 -25.1826
-13.3852 0 12.5334
-6.35437 0 6.49074
27.4611 0 -45.0517
56.1702 0 91.6115
7.43532 0 21.9481
6.17208 0 -0.952088
0.0592497 0 12.4405
105.128 0 -4.91067
4.72688 0 -13.7965
-74.6834 0 -27.0494
3.43314 0 -5.49178
80.2207 0 21.6996
-52.3338 0 -10.1163
-1.022 0 36.7027
-0.763514 0 11.5629
9.47905 0 -69.3187
75.0729 0 -107.691
-15.9059 0 -13.6352
-74.5788 0 100.406
-28.463 0 -27.6636
30.0059 0 44.7459
4.745 0 -30.1207
-7.64328 0 -2.81509
0 0 0
5.69523 0 -13.9403
-75.7649 0 -83.2327
3.16187 0 9.76076
53.6656 0 29.6769
-12.8352 0 -75.1465
27.5744 0 -2.28168
-4.52074 0 -5.36698
-51.8513 0 -59.6555
16.3559 0 26.7252
29.2133 0 -12.0086
-72.834 0 -61.9691
92.8293 0 46.4549
-57.3031 0 -21.9632
-48.0205 0 35.5574
3.00615 0 -3.13691
-24.6381 0 55.3201
59.4203 0 -52.1267
-7.66134 0 -23.1111
-50.3925 0 66.4713
13.6868 0 47.337
-7.02281 0 12.8765
-2.83136 0 41.8714
-24.6888 0 5.43453
-6.04722 0 21.7063
-9.77101 0 -22.193
6.89896 0 74.6059
-2.58357 0 12.367
12.3126 0 -4.162
7.34372 0 -14.6111
-2.34743 0 -2.79886
-3.56048 0 -47.8014
-13.6543 0 -16.0834
5.31921 0 -2.88389
12.056 0 42.2205
-13.3112 0 10.0051
51.3999 0 15.7731
-22.7948 0 -14.5712
-7.25244 0 -4.71257
-0.31907 0 -9.62887
-0.964413 0 2.02842
-14.3729 0 -5.43218
42.9386 0 -70.6494
-13.1629 0 12.1763
-4.05746 0 15.0318
-5.18841 0 -3.55349
11.4011 0 -15.5552
11.5195 0 3.26466
24.9505 0 3.01445
5.14817 0 -0.050165
-4.70917 0 -8.30896
-29.8828 0 -33.8581
-19.3062 0 -9.99481
-85.7178 0 79.1691
45.6326 0 53.1277
-5.01012 0 -12.9672
2.28809 0 -9.16969
4.94964 0 -4.24049
-15.5071 0 30.0781
9.96506 0 0.105276
-2.42289 0 -7.57773
3.61337 0 -23.0028
18.7287 0 37.2767
3.81795 0 4.15026
2.68527 0 22.1513
3.29847 0 67.3099
1.02818 0 2.75072
11.0216 0 14.047
17.0377 0 -46.8815
34.9948 0 73.9632
-27.3298 0 16.2119
-17.0149 0 35.0911
0.216221 0 4.68128
26.5481 0 22.9279
19.6019 0 -7.91201
-43.9451 0 -14.1506
6.13835 0 -61.2833
74.4679 0 -47.7402
-1.80973 0 28.946
2.78823 0 7.17751
-19.5626 0 -62.2725
2.22038 0 -0.552138
5.50405 0 -11.3247
-208.812 0 6.44139
34.9065 0 -66.719
159.96 0 52.3687
-0.801313 0 32.8526
35.3542 0 37.2515
11.4825 0 2.02414
-3.99519 0 -11.0958
17.5363 0 0.939428
16.364 0 -55.3881
-31.5061 0 -28.6719
-55.2095 0 10.7465
-2.28112 0 1.32147
-16.273 0 21.3587
-3.42881 0 7.8238
39.9396 0 -24.8367
-66.3972 0 -94.6084
1.53578 0 -7.67959
6.68927 0 -7.35944
-33.3076 0 63.4993
7.34586 0 -18.6092
7.59654 0 25.2015
8.72495 0 13.8637
-64.9323 0 71.7403
-8.10874 0 -0.89664
-3.66765 0 -20.76
-16.2982 0 1.49344
-7.64332 0 23.3528
9.90425 0 -18.3521
58.2785 0 29.0293
-14.2003 0 47.3393
-3.29846 0 -5.34414
-1.08363 0 -10.0295
7.27675 0 -10.6014
-6.81227 0 9.67116
2.90134 0 -17.9593
2.38938 0 1.93994
5.99318 0 15.7883
11.2727 0 -2.92655
5.98595 0 -6.35792
5.91673 0 -8.48102
21.6296 0 -49.8849
0.134619 0 14.4935
46.4561 0 -27.0688
-43.6601 0 -17.148
-42.4223 0 3.9882
5.36315 0 -49.6062
-1.15008 0 -23.2642
-10.0228 0 -26.9404
2.00889 0 -8.38656
-2.30464 0 -2.95765
-18.0082 0 -12.5367
21.1141 0 -6.9925
-8.91845 0 -1.97098
-42.6186 0 99.6505
46.2605 0 -26.6909
51.2221 0 26.1523
21.2826 0 -0.988534
-13.9465 0 -63.2337
38.5953 0 25.6247
-2.79539 0 -14.5855
-12.305 0 -10.7743
7.63179 0 -16.7443
8.12029 0 27.9824
-11.7379 0 -5.30078
-10.0923 0 9.85811
-2.71921 0 -13.993
33.6253 0 -27.6578
6.47906 0 -13.0704
-102.726 0 115.55
27.5205 0 17.5458
-8.91618 0 11.3986
9.69866 0 -20.8514
16.4427 0 -2.11446
7.92289 0 13.4794
-8.06818 0 -9.29762
1.57927 0 45.2827
-44.1835 0 78.8902
17.765 0 -1.13797
-19.7476 0 -22.8724
-15.0327 0 8.68354
-18.9954 0 4.38441
11.1456 0 8.35491
16.1444 0 -1.70026
-4.31092 0 12.7915
-2.29216 0 7.83429
-9.83199 0 -17.8541
3.69221 0 -26.0923
-8.6356 0 -6.92794
58.6189 0 -58.3652
-9.29358 0 -14.663
-10.7326 0 4.91202
3.49031 0 7.82372
-2.5772 0 -6.02064
3.19903 0 -2.76674
-22.0094 0 -12.4127
-51.2344 0 -4.33086
-33.6434 0 3.30012
46.2655 0 -4.49767
-113.594 0 -40.6807
11.5452 0 -11.703
-56.5906 0 36.4237
76.4578 0 -5.01961
2.82232 0 -54.9044
1.67684 0 33.676
-11.9352 0 -88.7931
3.16732 0 51.5701
-75.7259 0 24.0475
-25.0972 0 39.8347
26.2734 0 -15.9264
-101.827 0 16.7555
45.5672 0 -29.662
16.6124 0 -14.814
-0.753268 0 4.1075
-102.727 0 -20.2173
-15.0895 0 -66.2772
69.2894 0 24.0476
17.3071 0 4.37179
-8.33055 0 -2.5037
-38.4132 0 31.5122
-1.5685 0 11.8375
-7.97873 0 6.40186
16.0237 0 16.4264
-8.3931 0 10.7866
-10.3081 0 9.4639
-11.1048 0 -32.7245
-110.729 0 -137.443
-12.7542 0 13.4582
-1.10574 0 9.68134
-5.93261 0 5.01245
40.0978 0 -0.8805
-15.0555 0 -27.6214
78.432 0 2.8031
38.1343 0 15.2209
-7.32321 0 -11.6731
-5.60338 0 -18.949
-1.7374 0 -12.5551
-1.29548 0 -3.64982
-12.8628 0 -18.1689
-2.16089 0 2.15321
-12.8628 0 -5.09337
10.1331 0 -7.33637
-68.69 0 42.1445
5.02236 0 -17.2879
3.92214 0 -109.587
-38.2046 0 15.0708
55.9779 0 -15.6348
-9.39572 0 8.91787
50.8425 0 105.44
24.4041 0 7.24563
15.1387 0 -13.1278
-22.3214 0 11.3647
5.94911 0 -16.9043
23.3017 0 -11.9805
1.55647 0 -23.6972
-2.07791 0 0.556321
-0.687577 0 4.69402
8.54287 0 -3.04138
3.31562 0 48.5229
48.3178 0 -52.4418
16.8388 0 18.2957
-31.5207 0 22.0635
35.1437 0 -15.591
-2.18859 0 -99.4852
-6.48156 0 14.5504
-30.2665 0 -58.6784
24.155 0 88.1602
78.2718 0 -38.4204
-7.18899 0 12.0245
-4.63247 0 20.3759
-31.7677 0 -1.89117
38.6757 0 9.46889
-7.59043 0 0.494509
-4.923 0 -13.3958
17.2035 0 1.45707
-8.45401 0 26.2275
-12.5695 0 68.6444
-17.9581 0 4.00627
7.26137 0 0.225524
16.1178 0 -15.9596
7.85208 0 -14.1515
-2.32259 0 2.49901
5.70885 0 -16.5597
3.42399 0 -6.76116
18.3537 0 -22.3619
21.6712 0 34.9428
-12.8047 0 -15.4774
-1.70967 0 24.7981
3.44518 0 5.36841
12.2764 0 -4.97449
-8.973 0 3.8115
-66.1859 0 -28.422
-49.3581 0 2.28807
70.6044 0 -10.0541
-2.61163 0 -15.159
30.027 0 -5.72961
-22.3651 0 0.173423
-6.84752 0 -10.4689
24.3271 0 -22.6959
-8.37616 0 20.7875
-16.2742 0 5.08239
12.4897 0 9.03567
36.383 0 -40.7813
81.9239 0 -56.212
3.04613 0 6.98661
-41.1493 0 69.0796
-3.29225 0 3.59741
7.37495 0 -12.2238
2.38182 0 -71.4241
14.6651 0 11.1492
7.46058 0 6.80385
10.7502 0 -0.0573857
-9.36353 0 1.68499
-0.167597 0 -9.8975
-8.14777 0 -30.2103
18.331 0 4.68844
-4.86886 0 -9.45719
-18.6005 0 10.9239
13.7527 0 -6.79617
-0.716858 0 6.57325
5.63678 0 8.30934
7.82825 0 -5.22866
-46.5258 0 0.614176
-17.1895 0 -13.3403
40.8052 0 144.903
-33.5187 0 32.9536
40.9844 0 14.6032
-3.15715 0 11.0276
-11.2024 0 -2.62228
-6.65384 0 15.1568
-19.2244 0 -1.42726
-18.9553 0 0.674071
17.1834 0 1.66483
15.0108 0 4.75932
-6.29508 0 -43.3098
11.6516 0 -25.2852
1.30696 0 -8.5211
5.07445 0 9.16476
22.8618 0 107.417
-55.9821 0 -51.5061
11.5046 0 -15.0523
5.16342 0 5.19812
-25.876 0 -22.4514
-4.27629 0 11.9304
-10.091 0 -14.8004
-16.9771 0 26.1637
16.8996 0 -26.7271
-9.14115 0 -6.89425
-5.93528 0 -8.73974
-4.6506 0 7.73243
14.0599 0 -3.06085
-33.4121 0 -5.11157
29.7599 0 75.0124
59.4935 0 -72.7476
26.51 0 3.99317
8.29295 0 21.2993
-12.3757 0 8.53219
8.25102 0 -15.2925
80.3571 0 -9.74136
-7.63573 0 12.8039
-1.48323 0 0.236242
-21.789 0 15.5699
-10.8074 0 -0.52792
-31.515 0 10.7577
72.4475 0 18.9567
23.8015 0 7.09385
-43.014 0 -16.3388
14.5228 0 5.63207
6.30075 0 6.63645
-30.4619 0 16.5797
0.703379 0 0.516929
1.29358 0 1.97877
-43.4474 0 34.8329
24.2758 0 -37.4908
4.54229 0 5.1489
-2.21099 0 14.0726
19.0938 0 -5.17349
-3.74149 0 -13.4503
0.735978 0 -95.6198
23.4411 0 39.4599
-38.069 0 5.29834
2.63586 0 42.0762
-46.8494 0 -21.5391
64.2307 0 -8.74677
4.23392 0 -37.8107
1.31131 0 -0.419871
38.3128 0 -12.216
23.7681 0 4.55
15.6296 0 -3.4426
-8.19613 0 10.6302
-9.48745 0 -6.80004
-1.43595 0 2.56296
11.4212 0 9.82058
-6.53922 0 12.0063
33.8913 0 -37.1472
-3.23434 0 -6.32355
-5.95802 0 58.9579
15.185 0 -54.7337
1.12899 0 8.52756
79.0944 0 -43.7865
-23.4853 0 -26.8284
-56.015 0 -17.9642
-26.0136 0 -47.4492
46.4541 0 67.7151
-25.9104 0 3.85526
0.619784 0 -7.56968
10.7473 0 -26.8571
14.887 0 -21.788
-11.3053 0 -44.7775
-1.39811 0 7.51161
-56.7011 0 -131.458
6.48044 0 -11.104
3.56088 0 19.628
-87.8448 0 37.1846
2.56983 0 2.09354
61.5266 0 7.2094
-8.05438 0 -8.71858
8.79313 0 -15.208
-50.6834 0 -18.7267
-5.54814 0 17.264
-2.84847 0 -21.2444
-18.4792 0 13.8437
15.5205 0 15.9785
-75.2731 0 -35.6353
10.3971 0 11.7336
-18.3997 0 10.6982
4.05072 0 -4.0956
4.05762 0 -11.916
76.3957 0 -87.7126
-21.6068 0 1.72669
16.6757 0 30.1849
-10.388 0 8.69909
12.7979 0 -8.70827
-36.2569 0 -23.6073
26.197 0 -24.2029
-27.205 0 0.953914
-0.780949 0 7.6361
15.3823 0 -2.64192
-14.2314 0 -11.8557
-50.5946 0 13.5518
20.5485 0 -42.4295
-1.49079 0 0.876914
-104.577 0 -45.4382
-1.79771 0 7.20454
66.6594 0 -30
-16.9373 0 3.92515
-51.7596 0 10.1288
13.0416 0 18.6467
23.5754 0 0.707608
24.9129 0 -7.61323
-12.201 0 6.47488
-8.32263 0 -2.53256
6.7883 0 13.3281
3.77303 0 8.25517
-6.52625 0 34.5527
13.5366 0 3.03424
9.48839 0 -9.62279
-5.60818 0 0.712366
11.1657 0 40.4746
-9.08398 0 -5.71237
-105.794 0 -22.7507
-8.34976 0 79.3528
39.945 0 41.1974
14.9049 0 -40.2629
10.6488 0 39.6954
12.629 0 -15.0781
26.2323 0 5.27544
-2.44602 0 26.9011
-9.96586 0 -11.8004
-14.8489 0 -19.4372
-2.35303 0 0.369687
14.3444 0 -25.9209
35.2865 0 -11.4571
6.19689 0 10.6355
4.9188 0 10.665
-37.4354 0 28.4894
-62.5949 0 -7.88338
14.4802 0 28.1329
-39.6744 0 -24.8596
-2.63583 0 4.09701
-5.45698 0 5.85767
4.44725 0 -4.69119
15.7083 0 9.48629
-7.59698 0 -71.6873
14.8158 0 21.0731
-1.54181 0 -17.2023
11.3377 0 8.79448
0.5476 0 9.80738
-24.7917 0 55.6075
-10.392 0 4.44442
10.1285 0 4.06856
-2.38278 0 12.4113
16.7649 0 0.309731
28.4412 0 58.1119
-5.21659 0 49.3367
-3.20934 0 5.604
20.8001 0 22.8701
8.48284 0 76.2141
7.38018 0 -7.08885
-9.32638 0 11.7683
55.2721 0 18.9482
15.0682 0 -24.2786
-9.4605 0 -4.36699
7.37753 0 5.5781
-0.219451 0 -11.6665
-13.5227 0 -1.79112
32.6839 0 -5.42745
-17.3566 0 -0.302178
-1.08326 0 -47.4875
16.4434 0 -24.5641
16.6762 0 -30.6875
-6.52514 0 10.1077
11.2688 0 8.48376
-43.0617 0 54.1615
4.53521 0 -3.22424
-53.4294 0 33.3811
46.2674 0 -24.8067
-38.5669 0 -16.8602
18.3286 0 -39.4408
15.9618 0 -24.8936
-15.6631 0 -2.67702
3.31454 0 -12.4794
2.33565 0 4.25235
-23.0012 0 -12.9872
74.8242 0 15.6248
-182.422 0 13.7569
-32.3912 0 -21.5681
-69.6254 0 -29.5844
-14.1028 0 -18.2318
-10.0789 0 57.3443
18.2351 0 5.89527
-0.123846 0 -6.06294
-11.5387 0 4.67606
-18.3938 0 -7.15118
-17.4087 0 3.98819
13.7702 0 12.7662
-17.276 0 9.51736
15.3143 0 25.4277
25.8414 0 32.1034
-1.25583 0 0.709997
0.512314 0 -0.592144
8.55179 0 8.14425
2.72646 0 -17.7932
-18.4348 0 8.30694
-45.8129 0 55.8634
-16.453 0 3.11098
17.7288 0 -18.7337
11.0519 0 2.9184
-100.397 0 43.1525
27.5248 0 15.9824
4.9962 0 -11.1496
13.139 0 3.50825
-23.0988 0 -1.38565
-18.6155 0 13.4799
35.67 0 4.24829
22.2349 0 52.831
0.867193 0 7.86504
-1.69373 0 7.69075
18.4778 0 -83.0803
24.4903 0 91.722
-4.53585 0 4.36608
27.9296 0 -24.2619
-20.7095 0 -7.82687
-11.4976 0 17.2882
11.1072 0 2.95798