# vtk DataFile Version 3.0
SiWiRVisFile
ASCII
DATASET UNSTRUCTURED_GRID
POINTS 1600 DOUBLE
76.1746 100 72.1042
74.3428 100 72.0884
75.2396 100 72.7086
77.3043 100 72.5156
78.5981 100 72.7703
79.3037 100 73.5482
80.3078 100 73.2033
81.4204 100 73.4954
82.331 100 74.0893
82.054 100 72.5525
92.9473 100 64.272
91.5976 100 64.1723
92.6131 100 65.2621
90.5005 100 64.537
82.352 100 64.9913
89.6039 100 56.8343
91.489 100 56.0953
90.1237 100 53.9213
85.4999 100 46.3213
94.0383 100 50.9381
108.438 100 26.8703
108.233 100 25.0131
107.027 100 24.899
107.667 100 23.8612
106.297 100 26.0092
111.051 100 26.7966
110.629 100 17.3764
114.06 100 17.4415
110.474 100 20.8454
110.893 100 19.7246
111.929 100 19.5652
113.532 100 19.7825
111.374 100 18.6687
114.215 100 18.8866
114.7 100 23.9164
118.14 100 26.6477
116.741 100 23.04
116.209 100 25.6082
115.183 100 26.2122
116.007 100 27.23
133.418 100 52.0496
138.992 100 46.3213
131.344 100 54.2943
133.574 100 55.3377
135.377 100 54.1716
135.176 100 67.2552
133.848 100 64.2423
134.261 100 66.4424
132.804 100 63.9568
133.017 100 65.0446
141.717 100 72.5781
141.003 100 74.2691
142.196 100 73.6501
143.271 100 73.3102
145.361 100 73.6273
146.321 100 73.2028
147.329 100 72.7243
149.306 100 72.6013
150.875 100 71.5294
148.298 100 72.0963
73.5254 100 72.6894
74.3881 100 73.3588
76.3618 100 73.2069
77.2506 100 73.784
78.2024 100 74.4513
80.1785 100 74.2862
81.3181 100 74.6744
82.479 100 75.2013
83.4414 100 74.4981
85.1832 100 75.3433
86.229 100 75.0195
92.4061 100 63.0819
91.4797 100 65.225
91.2847 100 61.5964
90.9337 100 57.124
91.0205 100 62.6316
92.1524 100 55.1609
91.3387 100 53.7171
92.4422 100 53.9495
96.1202 100 51.3922
107.387 100 25.9504
95.588 100 34.0762
106.711 100 39.1633
108.869 100 23.6362
109.327 100 24.7913
111.541 100 25.83
111.719 100 24.7532
110.42 100 24.7611
106.158 100 13.601
111.603 100 20.8636
112.663 100 20.5089
118.803 100 13.6856
113.417 100 22.1693
115.693 100 22.3698
115.053 100 25.1177
115.756 100 24.065
114.569 100 21.728
119.458 100 39.1216
128.918 100 34.058
116.84 100 26.4557
127.457 100 51.7101
129.282 100 52.2572
132.404 100 51.635
134.704 100 55.3079
133.617 100 62.8378
134.076 100 56.3279
132.224 100 60.3744
134.084 100 65.2601
131.79 100 63.4997
138.586 100 75.2571
139.793 100 74.805
140.78 100 75.3189
141.98 100 74.7392
142.99 100 74.4441
144.32 100 74.0134
146.265 100 74.2719
147.413 100 73.8694
148.298 100 73.1975
150.238 100 73.2353
151.203 100 72.7544
73.4095 100 73.8567
74.2862 100 74.516
75.4339 100 73.7532
76.3733 100 74.4156
77.313 100 75.0155
79.3274 100 74.9259
80.3036 100 75.3613
81.592 100 75.8049
82.6871 100 76.3668
83.5953 100 75.7497
85.905 100 76.1343
84.8739 100 77.5021
87.5727 100 77.1272
92.2691 100 62.0188
90.1696 100 60.7712
92.8228 100 58.9598
92.6461 100 56.2155
93.216 100 55.3086
93.6888 100 53.4418
94.9299 100 51.4238
96.799 100 50.4134
104.659 100 39.1883
105.692 100 38.6756
106.99 100 40.2557
96.3895 100 36.4671
107.94 100 39.5333
107.319 100 37.6563
106.286 100 37.7758
110.919 100 21.7944
112.452 100 22.7416
112.238 100 21.6771
113.539 100 21.1
122.198 100 38.7211
117.206 100 36.2636
118.271 100 38.5935
121.127 100 39.2955
118.553 100 39.8103
119.655 100 40.2686
120.714 100 40.321
126.778 100 50.881
132.227 100 53.1156
130.655 100 53.2946
133.554 100 54.2404
132.632 100 54.6559
132.643 100 57.6196
132.46 100 58.6639
132.226 100 62.442
137.472 100 75.9706
138.553 100 76.5143
139.755 100 75.8541
140.759 100 76.4187
141.746 100 75.9177
142.867 100 75.6071
144.006 100 75.1711
145.324 100 74.6837
147.217 100 74.9626
148.355 100 74.3418
149.36 100 73.8284
150.368 100 74.8501
151.345 100 74.0942
73.332 100 74.9684
74.2996 100 75.6247
75.3249 100 74.9047
76.2819 100 75.4911
78.2968 100 75.5791
79.5515 100 76.0513
80.7079 100 76.484
81.7039 100 77.0285
83.8516 100 77.0271
84.7651 100 76.3135
84.8982 100 78.6187
86.5207 100 77.0947
87.0754 100 76.102
92.2918 100 60.9012
91.199 100 60.3885
90.5278 100 59.4951
93.1833 100 57.0779
91.9588 100 57.1461
93.9875 100 56.2599
94.2982 100 54.9023
94.4459 100 52.5761
97.4779 100 51.4085
104.797 100 38.078
104.81 100 43.3817
105.856 100 39.8271
106.003 100 41.0263
108.229 100 42.0324
110.008 100 41.4019
108.238 100 38.3495
112.668 100 24.0479
114.4 100 22.8345
113.895 100 35.5384
115.177 100 41.1635
116.515 100 40.1906
117.675 100 40.5095
120.161 100 41.5376
118.929 100 41.0366
119.606 100 37.8596
126.286 100 51.9095
129.355 100 53.3104
130.206 100 54.4903
132.435 100 55.7661
131.878 100 56.6689
131.499 100 57.7976
131.343 100 59.0341
131.895 100 61.4557
130.968 100 62.4712
137.56 100 74.8144
138.663 100 77.6301
139.762 100 77.7864
140.811 100 77.5386
141.853 100 77.059
143.043 100 76.6856
144.094 100 76.2419
145.131 100 75.6978
146.179 100 75.4141
148.199 100 75.5595
149.184 100 75.0358
150.127 100 75.9114
151.421 100 75.2837
73.4558 100 76.2118
74.3301 100 76.9085
75.3165 100 76.0683
77.3245 100 76.085
78.4901 100 76.6265
79.6872 100 77.1414
80.8414 100 77.6935
81.9331 100 78.1523
82.8888 100 77.5315
83.9009 100 78.1433
85.0996 100 80.238
88.3013 100 77.8506
88.1426 100 75.9534
94.8977 100 58.0476
91.7129 100 59.4626
91.8579 100 58.3003
95.2826 100 57.0252
95.0539 100 55.931
94.904 100 53.4508
96.1432 100 53.8421
95.5502 100 52.3971
102.921 100 48.3374
104.618 100 42.0832
107.351 100 42.6231
106.934 100 41.6879
108.372 100 43.2214
109.269 100 42.3603
110.65 100 42.5729
107.941 100 40.836
110.3 100 25.911
109.701 100 26.7686
116.118 100 39.1976
113.133 100 41.0215
114.467 100 42.0755
116.831 100 41.3981
117.356 100 39.4153
117.834 100 41.7332
118.08 100 43.0222
123.06 100 48.1012
128.523 100 51.4016
128.211 100 52.4144
129.049 100 54.3361
131.32 100 55.4169
130.825 100 56.6777
129.991 100 57.3931
130.413 100 61.3317
130.866 100 60.2883
137.622 100 77.3547
138.035 100 78.4247
140.03 100 79.8398
140.571 100 78.649
141.61 100 78.3609
142.848 100 77.7415
143.988 100 77.3669
145.082 100 76.8254
146.127 100 76.4859
147.067 100 76.0839
149.079 100 76.2509
149.96 100 77.0873
151.036 100 76.653
73.2525 100 77.4367
74.5129 100 77.9555
75.3931 100 77.4005
76.357 100 76.6682
77.475 100 77.1559
78.6485 100 77.9209
79.7605 100 78.2906
80.8623 100 78.7427
81.8372 100 79.258
82.9019 100 78.6313
83.988 100 79.3005
85.9752 100 78.072
88.0153 100 79.1047
87.3781 100 75.0714
89.4241 100 75.4969
93.7 100 58.159
95.9444 100 57.82
97.052 100 57.529
96.2719 100 56.6273
95.2869 100 54.6112
96.4952 100 52.7553
98.6494 100 51.717
103.328 100 47.2183
104.524 100 45.5515
105.911 100 42.6486
106.721 100 43.4526
108.226 100 45.189
109.497 100 43.4346
111.976 100 41.367
110.97 100 40.6296
114.375 100 40.3435
113.41 100 42.4591
115.608 100 42.3099
115.254 100 43.4623
117.101 100 42.6043
118.882 100 42.3146
119.148 100 43.3819
122.475 100 47.2259
125.732 100 53.0318
127.196 100 52.8813
128.186 100 53.5927
130.119 100 55.6121
128.381 100 57.5449
129.473 100 58.5534
130.557 100 58.3022
136.341 100 75.5441
139.61 100 71.2377
137.233 100 79.2548
139.162 100 78.6668
141.449 100 79.4647
142.521 100 78.8888
143.486 100 79.5566
144.021 100 78.5794
144.928 100 78.1162
145.95 100 77.6578
146.977 100 77.2184
147.967 100 76.7624
148.859 100 77.4431
149.703 100 78.1945
150.806 100 77.7813
72.2704 100 78.0296
73.4738 100 78.4608
75.4641 100 78.5099
76.4786 100 77.9137
77.4957 100 78.3027
77.472 100 80.7751
80.0041 100 79.3958
81.0136 100 79.8481
82.0925 100 80.5282
82.8196 100 79.7072
86.3572 100 80.3031
87.1043 100 78.1075
88.7382 100 80.1292
88.4563 100 74.7864
94.3495 100 59.0681
94.2149 100 57.2618
95.968 100 59.2136
98.0215 100 58.1655
96.4969 100 55.4039
97.0669 100 54.4623
98.008 100 52.6699
100.036 100 52.7891
104.317 100 47.5634
105.724 100 43.7809
109.883 100 45.6258
108.682 100 44.24
105.33 100 47.9276
109.812 100 44.5809
104.936 100 48.8793
106.434 100 47.7675
119.597 100 49.2847
117.172 100 48.7572
115.045 100 44.583
115.984 100 48.7643
116.738 100 45.7707
116.216 100 44.286
117.067 100 43.6423
121.398 100 47.9014
122.997 100 49.8455
126.614 100 53.7975
127.339 100 54.5198
129.054 100 55.5864
128.08 100 56.3655
127.875 100 58.4682
130.125 100 59.4269
129.734 100 60.5402
136.491 100 74.3404
130.626 100 78.4615
138.329 100 79.6051
141.273 100 80.4722
142.415 100 80.0596
143.196 100 80.7288
144.409 100 80.1132
145.456 100 79.4797
146.648 100 79.8841
146.78 100 78.6855
147.901 100 77.9878
148.741 100 78.6617
151.084 100 78.8412
151.966 100 78.0374
72.5714 100 79.1154
73.4886 100 79.8527
74.4054 100 79.2226
75.4327 100 79.7325
76.5365 100 79.0094
76.6425 100 80.0934
77.4664 100 79.4432
79.979 100 80.6814
81.0562 100 80.9858
82.4778 100 81.5274
83.2986 100 80.7706
83.8887 100 81.9138
85.6608 100 79.3557
85.4853 100 81.4023
84.2486 100 83.1116
90.1943 100 79.2165
95.5546 100 61.0966
96.8256 100 58.5855
98.7093 100 56.1491
98.0393 100 57.105
98.5618 100 55.1465
98.0449 100 53.7292
103.873 100 48.867
105.213 100 44.7649
107.456 100 44.4006
108.88 100 46.294
107.209 100 45.7898
104.47 100 50.0195
105.446 100 50.0075
107.847 100 51.1499
118.137 100 49.3593
120.506 100 49.91
120.964 100 50.8846
117.947 100 46.2299
117.195 100 46.985
117.638 100 45.0979
118.043 100 44.1076
122.367 100 48.9666
125.505 100 54.2303
128.028 100 55.3392
126.992 100 55.6165
126.187 100 56.4458
126.919 100 57.9655
128.971 100 59.5389
131.248 100 77.3339
140.604 100 82.511
139.942 100 80.954
138.931 100 80.6352
140.849 100 81.4777
141.645 100 82.1552
142.166 100 81.1142
144.632 100 81.127
145.823 100 81.6311
145.572 100 80.523
147.729 100 80.4629
147.737 100 79.2299
148.75 100 79.7604
149.953 100 79.3259
150.875 100 80.0874
152.005 100 79.3326
72.5688 100 80.65
73.5666 100 81.0313
74.481 100 80.4108
75.5214 100 80.7888
76.7884 100 82.5758
74.7529 100 83.9011
76.5665 100 81.3806
78.4662 100 81.2815
79.4869 100 81.8209
78.5385 100 82.5525
81.5885 100 82.3469
81.7131 100 83.4112
82.8062 100 82.6495
83.1954 100 83.7291
85.1743 100 82.4461
89.0976 100 78.6749
96.6476 100 61.025
96.8516 100 59.8159
98.9539 100 57.6803
100.793 100 55.5719
99.0479 100 53.0863
[...]
POINT_DATA 1600
SCALARS mass double
LOOKUP_TABLE default
1
1
1
1
1
1
1
1
1
1
1
1
1
1
1
1
1
1
1
1
1
1
1
1
1
1
1
1
1
1
1
1
1
1
1
1
1
1
1
1
1
1
1
1
1
1
1
1
1
1
1
1
1
1
1
1
1
1
1
1
1
1
1
1
1
1
1
1
1
1
1
1
1
1
1
1
1
1
1
1
1
1
1
1
1
1
1
1
1
1
1
1
1
1
1
1
1
1
1
1
1
1
1
1
1
1
1
1
1
1
1
1
1
1
1
1
1
1
1
1
1
1
1
1
1
1
1
1
1
1
1
1
1
1
1
1
1
1
1
1
1
1
1
1
1
1
1
1
1
1
1
1
1
1
1
1
1
1
1
1
1
1
1
1
1
1
1
1
1
1
1
1
1
1
1
1
1
1
1
1
1
1
1
1
1
1
1
1
1
1
1
1
1
1
1
1
1
1
1
1
1
1
1
1
1
1
1
1
1
1
1
1
1
1
1
1
1
1
1
1
1
1
1
1
1
1
1
1
1
1
1
1
1
1
1
1
1
1
1
1
1
1
1
1
1
1
1
1
1
1
1
1
1
1
1
1
1
1
1
1
1
1
1
1
1
1
1
1
1
1
1
1
1
1
1
1
1
1
1
1
1
1
1
1
1
1
1
1
1
1
1
1
1
1
1
1
1
1
1
1
1
1
1
1
1
1
1
1
1
1
1
1
1
1
1
1
1
1
1
1
1
1
1
1
1
1
1
1
1
1
1
1
1
1
1
1
1
1
1
1
1
1
1
1
1
1
1
1
1
1
1
1
1
1
1
1
1
1
1
1
1
1
1
1
1
1
1
1
1
1
1
1
1
1
1
1
1
1
1
1
1
1
1
1
1
1
1
1
1
1
1
1
1
1
1
1
1
1
1
1
1
1
1
1
1
1
1
1
1
1
1
1
1
1
1
1
1
1
1
1
1
1
1
1
1
1
1
1
1
1
1
1
1
1
1
1
1
1
1
1
1
1
1
1
1
1
1
1
1
1
1
1
1
1
1
1
1
1
1
1
1
1
1
1
1
1
1
1
1
1
1
1
1
1
1
1
1
1
1
1
1
1
1
1
1
1
1
1
1
1
1
1
1
1
1
1
1
1
1
1
1
1
1
1
1
1
1
1
1
1
1
1
1
1
1
1
1
1
1
1
1
1
1
1
1
1
1
1
1
1
1
1
1
1
1
1
1
1
1
1
1
1
1
1
1
1
1
1
1
1
1
1
1
1
1
1
1
1
1
1
1
1
1
1
1
1
1
1
1
1
1
1
1
1
1
1
1
1
1
1
1
1
1
1
1
1
1
1
1
1
1
1
1
1
1
1
1
1
1
1
1
1
1
1
1
1
1
1
1
1
1
1
1
1
1
1
1
1
1
1
1
1
1
1
1
1
1
1
1
1
1
1
1
1
1
1
1
1
1
1
1
1
1
1
1
1
1
1
1
1
1
1
1
1
1
1
1
1
1
1
1
1
1
1
1
1
1
1
1
1
1
1
1
1
1
1
1
1
1
1
1
1
1
1
1
1
1
1
1
1
1
1
1
1
1
1
1
1
1
1
1
1
1
1
1
1
1
1
1
1
1
1
1
1
1
1
1
1
1
1
1
1
1
1
1
1
1
1
1
1
1
1
1
1
1
1
1
1
1
1
1
1
1
1
1
1
1
1
1
1
1
1
1
1
1
1
1
1
1
1
1
1
1
1
1
1
1
1
1
1
1
1
1
1
1
1
1
1
1
1
1
1
1
1
1
1
1
1
1
1
1
1
1
1
1
1
1
1
1
1
1
1
1
1
1
1
1
1
1
1
1
1
1
1
1
1
1
1
1
1
1
1
1
1
1
1
1
1
1
1
1
1
1
1
1
1
1
1
1
1
1
1
1
1
1
1
1
1
1
1
1
1
1
1
1
1
1
1
1
1
1
1
1
1
1
1
1
1
1
1
1
1
1
1
1
1
1
1
1
1
1
1
1
1
1
1
1
1
1
1
1
1
1
1
1
1
1
1
1
1
1
1
1
1
1
1
1
1
1
1
1
1
1
1
1
1
1
1
1
1
1
1
1
1
1
1
1
1
1
1
1
1
1
1
1
1
1
1
1
1
1
1
1
1
1
1
1
1
1
1
1
1
1
1
1
1
1
1
1
1
1
1
1
1
1
1
1
1
1
1
1
1
1
1
1
1
1
1
1
1
1
1
1
1
1
1
1
1
1
1
1
1
1
1
1
1
1
1
1
1
1
1
1
1
1
1
1
1
1
1
1
1
1
1
1
1
1
1
1
1
1
1
1
1
1
1
1
1
1
1
1
1
1
1
1
1
1
1
1
1
1
1
1
1
1
1
1
1
1
1
1
1
1
1
1
1
1
1
1
1
1
1
1
1
1
1
1
1
1
1
1
1
1
1
1
1
1
1
1
1
1
1
1
1
1
1
1
1
1
1
1
1
1
1
1
1
1
1
1
1
1
1
1
1
1
1
1
1
1
1
1
1
1
1
1
1
1
1
1
1
1
1
1
1
1
1
1
1
1
1
1
1
1
1
1
1
1
1
1
1
1
1
1
1
1
1
1
1
1
1
1
1
1
1
1
1
1
1
1
1
1
1
1
1
1
1
1
1
1
1
1
1
1
1
1
1
1
1
1
1
1
1
1
1
1
1
1
1
1
1
1
1
1
1
1
1
1
1
1
1
1
1
1
1
1
1
1
1
1
1
1
1
1
1
1
1
1
1
1
1
1
1
1
1
1
1
1
1
1
1
1
1
1
1
1
1
1
1
1
1
1
1
1
1
1
1
1
1
1
1
1
1
1
1
1
1
1
1
1
1
1
1
1
1
1
1
1
1
1
1
1
1
1
1
1
1
1
1
1
1
1
1
1
1
1
1
1
1
1
1
1
1
1
1
1
1
1
1
1
1
1
1
1
1
1
1
1
1
1
1
1
1
1
1
1
1
1
1
1
1
1
1
1
1
1
1
1
1
1
1
1
1
1
1
1
1
1
1
1
1
1
1
1
1
1
1
1
1
1
1
1
1
1
1
1
1
1
1
1
1
1
1
1
1
1
1
1
1
1
1
1
1
1
1
1
1
1
1
1
1
1
1
1
1
1
1
1
1
1
1
1
1
1
1
1
1
1
1
1
1
1
1
1
1
1
1
1
1
1
1
1
1
1
1
1
1
1
1
1
1
1
1
1
1
1
1
1
1
1
1
1
1
1
1
1
1
1
1
1
1
1
1
1
1
1
1
1
1
1
1
1
1
1
1
1
1
1
1
1
1
1
1
1
1
1
1
1
1
1
1
1
1
1
1
1
1
1
1
1
1
1
1
1
1
1
1
1
1
1
1
1
1
1
1
1
1
1
1
1
1
1
1
1
1
1
1
1
1
1
1
1
1
1
1
1
1
1
1
1
1
1
1
1
1
1
1
1
1
1
1
1
1
1
1
1
1
1
1
1
1
1
1
1
1
1
1
1
1
1
1
1
1
1
1
1
1
1
1
1
1
1
1
1
1
1
1
1
1
1
1
1
1
1
1
1
1
1
1
1
1
1
1
1
1
1
1
1
1
1
1
1
1
1
1
1
1
1
1
1
1
VECTORS force double
10.4136 0 4.12197
65.1091 0 -46.8846
30.1817 0 -29.0521
-8.17661 0 16.9233
-39.2104 0 -27.6344
-3.55994 0 59.3933
37.1668 0 -18.5854
-22.2034 0 3.05793
11.5177 0 13.0867
-2.44271 0 8.4414
-1.33464 0 -54.54
15.5064 0 -36.9451
-22.626 0 39.6146
16.6939 0 3.03764
0 0 0
10.3409 0 1.75532
11.031 0 9.99145
12.3231 0 -1.82824
0 0 0
-76.446 0 -39.2773
5.5582 0 -8.92509
-23.2393 0 -5.16411
11.5242 0 -3.62542
11.5698 0 19.4293
-5.62846 0 -8.18432
-22.1444 0 7.22482
3.0198 0 5.47495
0.678578 0 7.11354
-10.8738 0 -50.5021
-37.5176 0 19.5682
70.818 0 46.1201
-5.44475 0 11.8537
-25.6675 0 -29.1954
-2.08399 0 -5.24079
-23.1621 0 5.82765
-11.5854 0 -1.69167
-16.1639 0 -0.725617
-42.7141 0 -28.1954
19.7904 0 9.80677
-3.49443 0 -14.8333
6.14938 0 6.82379
0 0 0
-0.0422971 0 -7.63815
-17.3541 0 5.10349
-7.59141 0 9.55384
-9.01664 0 -8.17528
-1.21237 0 -44.6509
6.20545 0 -4.34017
-9.42266 0 -17.204
-7.069 0 -3.06303
5.52594 0 11.7197
-8.2924 0 -27.8236
-9.91615 0 -6.22009
4.36052 0 16.6078
-35.6788 0 -19.7592
47.9286 0 -31.2021
-8.29235 0 -4.30749
-6.76325 0 17.3729
1.39371 0 13.7353
-4.42254 0 -0.665155
-79.7002 0 57.0253
-2.3072 0 15.9324
-14.6321 0 -23.5153
49.6932 0 11.786
42.3917 0 -23.8857
31.0194 0 -22.7895
-1.33228 0 1.25556
27.6403 0 -7.57527
-17.0061 0 16.1102
-15.2532 0 -45.8522
19.7806 0 13.582
-5.83451 0 38.2493
-7.65699 0 25.433
-12.913 0 -57.8429
-72.5577 0 -6.99219
8.70949 0 26.0664
-19.4645 0 -4.169
-8.3272 0 5.40273
7.6384 0 12.3566
2.75165 0 6.39753
28.2457 0 -1.26346
0 0 0
23.11 0 -16.3192
-8.8237 0 19.1931
-11.0175 0 -5.63681
-10.5863 0 -5.51143
-2.81861 0 -16.5557
23.8734 0 10.3151
0 0 0
-46.0142 0 -61.2703
-38.0709 0 -17.9853
0 0 0
6.06088 0 16.5593
-9.43211 0 7.95907
13.7696 0 -23.3204
25.3968 0 8.31339
-11.967 0 3.04596
-7.05057 0 -2.8559
0 0 0
26.0835 0 31.9781
-46.8613 0 -9.52186
9.74218 0 -38.5234
-9.96178 0 2.41409
-6.62297 0 -2.89875
-12.2205 0 13.4741
3.55198 0 -6.66711
-13.2188 0 -3.0724
24.6579 0 58.7198
-5.54872 0 -14.5523
12.4734 0 19.8203
-1.52489 0 -42.0526
5.38203 0 16.9712
-25.9598 0 45.4959
54.8513 0 -4.62769
-13.7695 0 16.5081
83.5089 0 7.3794
-56.1915 0 -24.7835
37.8439 0 22.3333
14.2852 0 -2.51135
13.511 0 -9.68214
-11.6252 0 -12.8334
45.6573 0 -27.8025
-12.3669 0 55.7617
-25.6039 0 -20.334
-32.9656 0 -10.8299
-66.3197 0 6.12033
105.738 0 -20.0055
-16.0228 0 17.0159
-18.0717 0 10.7477
9.25182 0 -5.55456
23.9156 0 18.0848
4.26749 0 -4.69378
4.91189 0 -76.0237
10.4949 0 -9.03415
3.44041 0 -1.59118
-5.44807 0 -7.93754
-63.9967 0 -55.0444
47.0267 0 -12.2095
8.89644 0 4.62616
88.6497 0 60.3162
-0.0894401 0 19.0506
15.7082 0 2.57435
5.11364 0 39.641
-14.6062 0 1.28179
0 0 0
-18.3658 0 2.15454
56.1446 0 2.5428
-45.2889 0 -0.900985
35.2604 0 33.0035
4.3688 0 22.6827
46.4124 0 24.3883
33.2421 0 -1.05084
-10.5801 0 5.8595
0 0 0
8.18763 0 23.171
7.15335 0 -10.2391
1.90357 0 -1.47488
-16.2787 0 -31.6673
23.216 0 14.6318
-14.6155 0 -12.3891
-1.86561 0 2.77294
-7.25827 0 19.9892
89.9088 0 -46.1357
-97.226 0 42.6278
-10.0043 0 -41.9334
-25.1693 0 29.3812
10.6295 0 59.0955
7.66601 0 -1.30959
-9.66262 0 -12.0701
-6.03312 0 43.3697
-1.8956 0 13.7845
15.9631 0 -10.1377
0.154973 0 -24.8822
-1.63594 0 -31.6341
-67.3677 0 -1.1216
3.02274 0 -0.281839
9.99341 0 15.9125
-36.9903 0 18.4367
-1.7618 0 -24.3103
-17.8338 0 3.34809
-22.1169 0 34.1331
56.9098 0 -37.0011
1.04202 0 4.76083
11.2809 0 31.7125
18.9933 0 -37.8988
-68.7378 0 45.5922
-21.2444 0 5.97605
26.2839 0 -16.4028
8.40554 0 -26.0092
-21.6608 0 43.4854
-11.3589 0 -19.0861
-37.5879 0 -2.32216
-39.3746 0 24.5801
-22.7371 0 -4.09598
4.98607 0 44.2981
8.66557 0 7.71163
-1.04573 0 73.0775
87.4824 0 -3.13817
-31.8482 0 -76.8132
-64.508 0 31.0545
-69.6948 0 -142.45
-3.17597 0 5.28719
-10.8268 0 -12.6025
-103.322 0 -58.4586
-9.6698 0 12.3609
11.708 0 -12.1762
6.52868 0 -25.207
6.11291 0 11.7058
-11.0084 0 8.79994
-8.72042 0 -5.33373
-0.759872 0 -7.27272
0 0 0
0.837599 0 11.4407
25.0308 0 37.3022
-8.71237 0 16.3192
-14.6279 0 -18.7075
-36.4763 0 31.7941
-5.73113 0 15.3546
15.2181 0 14.287
7.62593 0 16.9078
0.516399 0 -10.7833
20.4173 0 -34.3492
21.9035 0 37.738
28.996 0 -14.2621
12.8849 0 15.0787
-31.3546 0 -48.2859
19.7165 0 -10.019
-15.6236 0 8.27646
75.9505 0 -62.965
6.83602 0 -13.9498
27.7528 0 0.0980094
3.85433 0 3.32175
1.8575 0 -7.9529
3.15804 0 20.5092
-35.1098 0 72.23
15.4829 0 -34.4338
-19.3437 0 1.9356
34.1428 0 16.0409
5.9094 0 16.7701
-13.7227 0 -1.5056
-57.8933 0 38.2832
2.86861 0 -37.4614
5.31367 0 15.318
-12.2241 0 11.4328
11.3324 0 34.4749
3.71942 0 14.8544
-23.1145 0 -40.1739
-31.7535 0 -16.7415
-19.5675 0 -8.16902
-4.23532 0 -4.39933
-16.6971 0 44.5031
42.1737 0 61.9941
26.8884 0 -2.7325
-4.90888 0 63.2006
19.1092 0 -38.0011
4.45626 0 1.33509
-53.4175 0 -49.4489
4.8448 0 -14.6802
80.2198 0 140.989
-17.0263 0 -6.19968
-95.2828 0 -32.3844
-2.31388 0 -14.4354
11.5134 0 13.2465
34.9198 0 52.8994
-21.9249 0 -74.4232
-10.865 0 -44.8376
14.9431 0 -3.65212
-18.201 0 -7.70367
-4.15657 0 10.5005
40.3956 0 -45.2806
-28.1376 0 36.9072
2.73304 0 -19.7787
-0.286046 0 7.59697
11.7728 0 -4.2183
-30.4265 0 -16.7811
6.85158 0 2.4026
49.6519 0 11.7312
-0.928328 0 9.57849
20.821 0 31.374
14.4205 0 -27.4627
25.0125 0 91.0223
-7.10433 0 40.1741
-3.96501 0 14.4616
-29.1011 0 -12.1746
-23.1749 0 -4.65646
45.8878 0 43.5968
4.00257 0 -4.10822
-17.5491 0 -18.4924
-66.0198 0 82.9519
5.60755 0 -9.23392
-27.3198 0 12.3673
-9.95703 0 -44.2055
-7.68829 0 30.16
2.83192 0 8.93082
-15.9085 0 19.9966
-73.6975 0 51.6661
84.3742 0 -31.3286
-9.44413 0 15.2361
-16.6284 0 -21.4657
-14.0374 0 -1.82019
7.43406 0 -51.8591
-60.6271 0 65.1761
54.6046 0 -47.241
-5.83843 0 6.86981
-6.40903 0 25.4844
-1.91761 0 -15.2958
13.0482 0 -9.30363
11.6185 0 15.1131
75.4233 0 -49.7985
13.8235 0 9.45325
-13.0505 0 -6.13681
-21.3921 0 9.03306
9.63046 0 -12.4275
2.32176 0 -11.8024
-20.6032 0 2.47721
-33.2443 0 44.2862
75.0625 0 41.9058
-22.4696 0 -10.8153
25.0556 0 -5.10654
68.0137 0 -20.5577
93.6891 0 31.703
-11.2903 0 11.1345
-42.3593 0 -3.27313
-26.6499 0 32.4601
0.0580073 0 3.25553
13.0019 0 42.5003
-10.9599 0 52.9366
-0.126234 0 16.2919
0.268994 0 -7.93436
0.494166 0 15.8049
-1.78237 0 10.2655
-0.59915 0 -8.11431
-5.4079 0 -3.03122
11.3791 0 -3.27392
-28.2813 0 -79.7679
9.7826 0 -43.5887
-9.57836 0 4.62291
-32.494 0 -23.5259
16.6037 0 6.32038
6.43666 0 -20.5051
-5.7576 0 -7.11024
45.7337 0 6.03771
19.1001 0 -40.415
-10.5221 0 -27.6624
-25.1827 0 25.3718
19.5406 0 -6.73745
0.165942 0 0.105584
9.79635 0 -19.3987
-21.284 0 30.4338
12.4067 0 -81.862
37.2538 0 28.4963
-37.2515 0 1.83279
-80.1713 0 25.1691
68.3021 0 -49.2595
-0.771528 0 -9.30204
-1.01119 0 12.6791
21.6814 0 -11.2538
14.8404 0 -4.50512
35.0163 0 -9.37109
5.7704 0 -1.60165
17.5291 0 2.07195
18.0091 0 49.042
14.0973 0 24.8854
-22.6145 0 -32.0335
13.588 0 4.94942
22.4177 0 -18.3422
-18.409 0 17.5743
-65.8831 0 73.0017
-18.3119 0 -29.1435
33.5461 0 21.6119
-20.8008 0 3.20494
4.91314 0 9.91667
1.33094 0 -9.7821
6.88853 0 18.378
3.48917 0 -7.98826
46.6907 0 -15.7946
-50.1497 0 -7.19282
-44.3415 0 68.6703
-16.9891 0 13.6051
17.0467 0 -12.4555
-7.68134 0 -44.9546
57.2803 0 -16.0738
27.4382 0 14.5304
84.9012 0 62.506
-9.97463 0 48.6227
26.2776 0 -6.72471
42.2535 0 -53.7404
-19.0823 0 -57.1802
-34.4829 0 76.8225
-4.88739 0 8.52994
-8.09968 0 1.11095
-6.44398 0 0.516229
12.8781 0 -7.04135
11.0404 0 -0.402338
13.9919 0 8.70333
-34.7224 0 14.9085
12.6103 0 28.1855
44.951 0 -54.5193
-1.25462 0 11.719
-74.495 0 -40.2245
42.712 0 31.1844
-0.0444656 0 1.05241
5.58384 0 67.1647
2.78421 0 49.8444
14.6393 0 8.59619
-28.3408 0 -59.3051
7.61358 0 16.2742
1.33834 0 -32.0606
5.96437 0 -13.9717
-17.5512 0 55.8395
-51.4558 0 -71.7037
78.8303 0 40.847
16.2914 0 -43.8937
-4.22094 0 -40.8114
1.01198 0 0.150685
-8.10614 0 -9.66815
-38.6428 0 -10.8204
-4.4712 0 10.6485
-50.2856 0 -5.26271
-20.6001 0 14.24
8.32312 0 10.1726
-12.7692 0 6.28838
9.54407 0 -13.5986
5.34935 0 -43.7907
-76.1912 0 -38.8439
-70.8656 0 38.5324
96.8256 0 8.60395
0.57386 0 -6.57228
9.64985 0 1.48852
2.74561 0 38.8978
-6.94081 0 -4.28013
-7.10969 0 8.60086
53.7056 0 -21.1792
10.5703 0 -26.0843
-6.99178 0 3.06028
-9.89276 0 1.94548
-3.19725 0 5.29506
30.706 0 3.67795
19.5445 0 105.831
9.15691 0 -56.9036
-11.0707 0 -103.369
5.88441 0 40.2762
-12.7361 0 14.5319
10.9818 0 -97.1026
30.5901 0 -24.1486
1.60544 0 -18.7341
0.25499 0 -21.7291
-196.537 0 -9.79572
190.985 0 -13.4144
-8.4379 0 77.5739
-19.133 0 -43.4255
2.49224 0 -14.4487
-1.28154 0 27.1497
8.35402 0 -34.9124
-23.5286 0 10.4557
2.53532 0 28.9819
41.407 0 -1.65231
-17.7365 0 -31.0174
7.2406 0 -0.86538
3.72448 0 -72.568
-12.4276 0 10.8661
7.1176 0 -22.5602
-24.4974 0 -11.5448
8.63589 0 9.31007
-20.7189 0 -7.43303
-33.3118 0 22.6723
0.402836 0 -9.77167
-28.4079 0 -24.3403
14.1174 0 -29.4209
51.5062 0 25.4869
-11.007 0 41.9261
40.3929 0 44.2377
-47.7939 0 26.9681
16.2885 0 40.9082
-41.6405 0 -28.1933
9.14061 0 9.32082
2.57522 0 22.8139
0.0102232 0 -6.47751
-15.354 0 -13.3801
31.8126 0 26.0499
-13.1648 0 -21.5951
32.0351 0 13.5796
5.02413 0 -11.4579
35.5684 0 35.8878
-15.3509 0 -85.7699
-14.5009 0 -21.7918
-18.5191 0 5.72819
56.6989 0 -16.7357
-9.04375 0 -5.59901
-7.19758 0 -9.16637
12.6004 0 -32.3542
-18.2294 0 -5.16471
-6.41735 0 -3.59275
-2.61606 0 -0.499691
-8.46594 0 15.9982
2.35643 0 2.71617
31.015 0 3.23856
36.9276 0 17.3916
50.0022 0 -34.1251
-82.0289 0 -25.1453
-68.5417 0 28.4398
16.4141 0 -1.74962
-44.2927 0 77.0595
77.4874 0 -8.13237
24.0809 0 -5.11576
-46.021 0 8.53945
21.6869 0 -4.25842
-8.0083 0 6.50068
-15.3151 0 18.3042
29.8391 0 -2.63952
-0.0805235 0 12.7505
42.0381 0 48.5427
-31.9275 0 -82.1796
-23.9723 0 3.30054
-24.8852 0 20.4385
-13.6167 0 4.96458
-3.54578 0 -22.0782
-23.5453 0 66.9988
-21.3891 0 14.2796
78.3571 0 -58.8043
85.4421 0 16.7024
6.99801 0 5.58234
-9.08801 0 -0.94475
20.7883 0 10.7987
12.058 0 -4.44989
14.1938 0 12.1923
-9.88353 0 -33.3625
-126.189 0 55.1755
-23.0695 0 -46.6145
-34.3101 0 9.17355
3.61069 0 -59.5619
5.23685 0 -10.0107
36.8354 0 -22.9657
84.9952 0 -135.352
4.9345 0 45.3073
-98.7868 0 33.8535
31.5022 0 14.132
6.34546 0 -9.47941
14.5554 0 -9.04714
-4.67284 0 -0.311343
9.59552 0 -15.3518
4.97137 0 -33.0294
-69.1999 0 -11.9187
10.0964 0 10.8341
43.3402 0 31.4827
-32.0769 0 43.8474
-45.5655 0 86.5088
28.6253 0 -8.49226
-138.508 0 76.8887
107.095 0 -57.4503
-6.19912 0 6.88758
4.47385 0 16.974
1.32661 0 -40.4168
-1.94408 0 -0.671137
-63.401 0 24.299
17.6165 0 -9.53035
-16.4614 0 -14.3784
-11.8747 0 -3.97675
-21.8041 0 26.3974
-3.47202 0 -22.8277
-3.23425 0 -4.41033
-7.12661 0 -7.47746
-13.6239 0 -7.72224
68.6626 0 25.935
-22.1979 0 14.9838
18.7975 0 6.35324
-21.9939 0 68.4308
-17.8725 0 -72.8997
5.87691 0 -32.7168
4.11979 0 -8.39288
14.2988 0 20.539
13.144 0 53.1048
45.1438 0 73.7105
35.6762 0 13.5944
29.1299 0 13.7694
-45.1976 0 -15.3235
-69.7144 0 47.6063
-9.54082 0 -1.16892
8.77632 0 -20.0544
-21.7362 0 2.49667
3.12664 0 -4.81553
20.6828 0 22.6344
18.493 0 6.49047
7.21395 0 8.46295
-14.6228 0 3.58293
47.2018 0 11.2227
9.02688 0 -68.185
130.949 0 -7.3792
-19.2499 0 3.21477
-68.7404 0 -41.3122
123.571 0 83.6176
3.77064 0 22.2683
-15.0234 0 73.6972
-1.36165 0 -2.6018
-11.416 0 1.27448
18.5321 0 -48.7033
-14.3267 0 11.9536
-14.8728 0 35.4904
-8.97048 0 -10.3456
-16.8271 0 -4.99554
-21.1915 0 67.6726
18.9853 0 -40.125
-27.1988 0 56.1093
25.3692 0 -3.7653
-91.7232 0 50.5147
91.8059 0 -48.5312
-8.21755 0 -21.219
57.208 0 -29.8051
-27.4502 0 -53.3728
59.8652 0 44.7395
1.56549 0 -2.64103
-10.6735 0 -4.5156
46.3431 0 -74.6611
34.2746 0 43.9084
-8.19203 0 41.0076
61.9851 0 -21.8306
-0.39031 0 -27.9764
11.5995 0 44.292
-12.7628 0 6.80714
29.0568 0 -46.5577
-0.0471491 0 15.109
-8.23516 0 0.0725023
-8.35888 0 -4.88397
-4.09304 0 5.05804
-6.68246 0 5.1819
30.0816 0 44.7276
-61.7199 0 -34.9898
8.08253 0 -4.10512
3.03738 0 -19.6874
31.8198 0 -68.7519
-34.2706 0 21.4669
-33.3878 0 -29.5544
-12.305 0 -58.8095
-4.65408 0 5.90391
-0.113076 0 -63.3921
10.1536 0 -13.3516
1.08292 0 13.6768
12.1813 0 19.0235
9.79365 0 16.4998
-38.1546 0 -9.92363
-24.7153 0 -24.319
-7.82592 0 0.53278
4.26715 0 16.9508
8.04266 0 11.055
1.38105 0 3.40109
-4.55611 0 -118.913
-56.8561 0 29.0847
-42.5793 0 -1.93503
11.2137 0 24.0872
7.93011 0 6.27111
3.81947 0 29.7127
36.3148 0 16.3704
-6.63073 0 -16.6095
-0.469351 0 -3.6084
8.32945 0 8.99093
-16.9094 0 -24.8054
45.6387 0 -9.32996
-2.66064 0 1.41094
-1.77811 0 0.418804
32.465 0 56.5888
-15.4505 0 10.2035
9.3828 0 -1.10928
2.62769 0 -0.0899094
-12.0852 0 -61.2158
46.9841 0 -3.83193
-11.4697 0 47.2124
0.465761 0 3.83002
-18.1867 0 22.5459
-23.8605 0 17.2085
-29.9532 0 4.54212
38.4319 0 -31.1081
21.6087 0 -4.01004
74.6705 0 15.3213
-7.6021 0 -2.14232
-5.13258 0 -4.84759
48.2528 0 95.062
-46.2362 0 -139.264
-2.94765 0 16.8822
-0.13502 0 34.314
-8.28747 0 6.4408
-82.5879 0 -7.83815
16.9317 0 25.9278
63.6421 0 -45.8689
-32.0115 0 -17.534
-26.8987 0 3.04865
5.835 0 -4.08231
-85.5912 0 -23.2667
10.2717 0 8.44148
34.3399 0 9.80528
-19.5612 0 -11.2908
15.1731 0 10.206
7.06558 0 25.3236
13.1379 0 57.134
-7.03603 0 4.2194
-8.60974 0 -16.075
-47.177 0 14.9579
6.81111 0 6.39813
-11.7234 0 -0.211279
0.0564526 0 -10.1556
2.72299 0 -15.0196
160.22 0 50.0742
-7.30408 0 3.94437
-7.43063 0 2.27809
9.80012 0 -1.37563
77.0828 0 -60.7192
-21.9849 0 122.739
9.61053 0 33.8441
11.4156 0 2.11653
65.271 0 -0.639465
2.5166 0 -26.7372
55.9758 0 -40.3641
12.6456 0 -39.1145
-4.66865 0 13.398
-19.5378 0 -16.1122
51.6071 0 -20.8997
-14.846 0 11.3017
-37.7914 0 19.2657
40.5345 0 -1.17641
-19.6658 0 -10.637
-7.59137 0 9.15953
16.5396 0 10.1156
17.3065 0 -53.6815
-2.47671 0 16.4118
-46.5797 0 -2.27308
47.2086 0 20.4174
-0.846289 0 4.15119
-10.1455 0 -3.59257
31.5124 0 27.7405
10.0065 0 8.5346
31.4615 0 -8.34733
4.59102 0 19.1532
-4.79752 0 -5.1939
1.45013 0 -21.4312
-5.09116 0 31.4996
-4.39151 0 -10.1862
7.39171 0 16.6885
8.2541 0 39.8373
-1.09048 0 6.99599
-94.4518 0 -23.4274
-8.48329 0 18.9965
0.856977 0 20.0998
12.6525 0 -16.6861
-2.48194 0 3.83999
6.55221 0 -2.25138
25.4339 0 18.5606
14.6249 0 119.415
20.3034 0 6.20592
-1.58843 0 -19.7587
-2.37114 0 -22.2609
-2.39168 0 -14.7066
-20.1131 0 -37.1864
13.1101 0 -11.1583
-5.41141 0 -2.86645
47.4175 0 -127.718
-49.7683 0 -43.4191
15.7079 0 -14.9161
-105.691 0 -67.3198
226.035 0 -55.9589
10.4458 0 -12.5092
-11.5153 0 4.884
72.6083 0 -20.8431
39.3963 0 12.7939
-10.8556 0 9.31613
4.07915 0 21.51
-23.5416 0 -11.3147
-20.7995 0 -29.898
-9.76778 0 -7.09195
127.106 0 -10.7362
-45.0891 0 -2.31983
-70.7526 0 16.6804
25.4298 0 26.4283
10.977 0 14.2409
-6.69744 0 -14.5796
3.62458 0 22.3312
-25.2143 0 27.3274
-42.6811 0 19.805
-12.3281 0 2.92413
-25.3212 0 -8.84087
-9.09845 0 9.00639
-10.606 0 16.8515
42.8778 0 -42.8131
19.5641 0 9.13708
-6.61689 0 -17.591
-83.0935 0 -26.9526
98.0084 0 -33.9779
-22.7003 0 -2.20754
-9.82137 0 -1.2875
-9.62503 0 -8.22385
-91.6775 0 -24.1342
4.76934 0 -7.05766
-27.8028 0 22.8514
-128.759 0 43.131
-5.84876 0 17.1759
27.2614 0 -15.4115
-70.854 0 -60.7223
20.4774 0 -7.25634
-4.13751 0 -12.4449
-11.6273 0 -33.8563
-1.87383 0 3.07651
-18.1852 0 -0.428928
-3.1132 0 -31.7025
-27.1064 0 -27.7347
-10.6652 0 -33.0055
-2.18704 0 -7.21213
14.3742 0 17.1719
30.1005 0 15.4986
61.2077 0 -60.8628
-8.21926 0 3.13796
-5.5666 0 3.58007
-0.409441 0 7.15948
8.31879 0 12.3986
-2.79842 0 15.4906
-38.9394 0 67.5375
-18.1104 0 144.403
13.5018 0 7.41823
-7.33518 0 -8.80839
-151.006 0 47.2596
-7.34929 0 1.01778
0.354263 0 3.23076
-7.65002 0 19.0668
-78.4756 0 13.6092
-54.2347 0 -6.92516
-2.72294 0 -10.1832
57.6393 0 -69.9782
6.29673 0 4.08575
42.7938 0 10.4596
-20.2488 0 -4.23331
37.2406 0 -13.7399
20.3373 0 24.4329
-29.1463 0 -28.4582
-13.1977 0 73.9727
21.9778 0 -56.2028
-13.3553 0 11.8829
23.9451 0 -11.0541
-18.2401 0 -0.617146
-15.9677 0 -67.6217
-19.2029 0 -60.7368
-0.967538 0 -9.1343
5.87763 0 -22.2203
19.7901 0 17.1834
-58.7744 0 28.5873
20.4418 0 8.77519
18.0691 0 4.32369
19.1379 0 -5.99003
-12.9545 0 9.29412
-2.51484 0 5.59551
29.7276 0 5.93062
-14.0669 0 -1.0159
24.8189 0 5.5365
13.1186 0 -0.548922
-46.0929 0 -10.1778
-4.40001 0 -90.6521
-9.92462 0 100.019
-146.872 0 2.98558
-26.9708 0 16.956
7.77767 0 -133.313
-28.9686 0 11.7622
36.0065 0 6.82706
-15.5388 0 -1.30079
30.3856 0 47.2884
43.7816 0 2.45611
-17.4979 0 -9.20928
23.4737 0 -51.9786
-18.6196 0 -0.326567
12.4967 0 -2.27131
12.046 0 -2.76654
-6.11795 0 -5.21055
-1.63772 0 1.98525
2.98021 0 -7.27474
-22.438 0 -22.0254
-4.20718 0 -11.0348
-4.11161 0 -1.36386
-34.8716 0 -41.9814
5.03129 0 -1.32919
48.2774 0 76.1093
5.45609 0 -32.6598
-66.5959 0 34.8428
-11.6441 0 -9.56371
-1.52917 0 -0.826856
-20.0354 0 -32.1118
70.0615 0 -42.2935
-30.084 0 9.47113
24.0668 0 -36.5445
-124.622 0 -6.12748
7.43751 0 -0.788522
-29.9535 0 0.993864
8.70588 0 -5.48847
4.63545 0 -21.0027
-9.25712 0 0.611519
16.7288 0 13.2901
-5.79257 0 -7.71474