# vtk DataFile Version 4.0
SiwiRVisFile
ASCII
DATASET STRUCTURED_POINTS
DIMENSIONS 5 5 1
ORIGIN 0 0 0
SPACING 1 1 1
POINT_DATA 25

SCALARS flags double 1
LOOKUP_TABLE default
1
1
1
1
1
1
1
1
1
1
1
1
1
1
1
1
1
1
1
1
1
1
1
1
1

SCALARS density double 1
LOOKUP_TABLE default
0.968769
1.01096
1.00045
0.988481
1.03157
0.992458
1.01726
0.998531
0.984051
1.00605
1.01582
0.98369
0.999344
1.01766
0.984024
0.985339
0.993665
0.99915
1.00559
1.01387
0.978861
1.03715
1.00125
0.959201
1.02681

VECTORS velocity double
-0.00248677 9.64243e-05 0
-0.00125106 -0.00652301 0
-0.000541491 -0.000154552 0
-0.000961368 0.00643624 0
-0.00302789 -0.000123712 0
0.00244092 0.00436535 0
-0.00501724 -0.00839453 0
-0.0082263 -1.78282e-05 0
-0.00562824 0.00762647 0
0.00256099 -0.00428618 0
0.000412917 0.000993542 0
-0.0162886 0.0152495 0
-0.0177747 -0.000641063 0
-0.0154872 -0.0148412 0
-0.00072127 0.000443638 0
-0.0188573 0.0140095 0
-0.0198767 0.0177801 0
-0.00839558 -0.000638598 0
-0.0195394 -0.0171405 0
-0.0177761 -0.01451 0
0.0292869 0.0116143 0
0.0419863 -0.00100584 0
0.0415707 -7.74769e-05 0
0.0455361 0.000383161 0
0.0316743 -0.0130562 0

