# vtk DataFile Version 3.0
SiWiRVisFile
ASCII
DATASET UNSTRUCTURED_GRID
POINTS 1600 DOUBLE
79.143 100 76.1826
80.2583 100 76.1909
81.3786 100 76.1908
82.501 100 76.1907
83.6234 100 76.1907
84.7459 100 76.1907
85.8683 100 76.1907
86.9908 100 76.1907
88.1133 100 76.1907
89.2357 100 76.1907
90.3582 100 76.1907
91.4807 100 76.1907
92.6031 100 76.1907
93.7256 100 76.1907
94.848 100 76.1907
95.9705 100 76.1907
97.093 100 76.1907
98.2154 100 76.1907
99.3379 100 76.1907
100.46 100 76.1907
101.583 100 76.1907
102.705 100 76.1907
103.828 100 76.1907
104.95 100 76.1907
106.073 100 76.1907
107.195 100 76.1907
108.318 100 76.1907
109.44 100 76.1907
110.563 100 76.1907
111.685 100 76.1907
112.807 100 76.1907
113.93 100 76.1907
115.052 100 76.1907
116.175 100 76.1907
117.297 100 76.1907
118.42 100 76.1907
119.542 100 76.1907
120.665 100 76.1907
121.787 100 76.1907
122.91 100 76.1907
124.032 100 76.1907
125.155 100 76.1907
126.277 100 76.1907
127.399 100 76.1907
128.522 100 76.1907
129.644 100 76.1907
130.767 100 76.1907
131.889 100 76.1907
133.012 100 76.1907
134.134 100 76.1907
135.257 100 76.1907
136.379 100 76.1907
137.502 100 76.1907
138.624 100 76.1907
139.747 100 76.1907
140.869 100 76.1907
141.991 100 76.1907
143.114 100 76.1908
144.234 100 76.1909
145.349 100 76.1826
79.1512 100 77.298
80.2597 100 77.2993
81.3788 100 77.2993
82.501 100 77.2993
83.6234 100 77.2993
84.7459 100 77.2993
85.8683 100 77.2993
86.9908 100 77.2993
88.1133 100 77.2993
89.2357 100 77.2993
90.3582 100 77.2993
91.4807 100 77.2993
92.6031 100 77.2993
93.7256 100 77.2993
94.848 100 77.2993
95.9705 100 77.2993
97.093 100 77.2993
98.2154 100 77.2993
99.3379 100 77.2993
100.46 100 77.2993
101.583 100 77.2993
102.705 100 77.2993
103.828 100 77.2993
104.95 100 77.2993
106.073 100 77.2993
107.195 100 77.2993
108.318 100 77.2993
109.44 100 77.2993
110.563 100 77.2993
111.685 100 77.2993
112.807 100 77.2993
113.93 100 77.2993
115.052 100 77.2993
116.175 100 77.2993
117.297 100 77.2993
118.42 100 77.2993
119.542 100 77.2993
120.665 100 77.2993
121.787 100 77.2993
122.91 100 77.2993
124.032 100 77.2993
125.155 100 77.2993
126.277 100 77.2993
127.399 100 77.2993
128.522 100 77.2993
129.644 100 77.2993
130.767 100 77.2993
131.889 100 77.2993
133.012 100 77.2993
134.134 100 77.2993
135.257 100 77.2993
136.379 100 77.2993
137.502 100 77.2993
138.624 100 77.2993
139.747 100 77.2993
140.869 100 77.2993
141.991 100 77.2993
143.114 100 77.2993
144.233 100 77.2993
145.341 100 77.298
79.1511 100 78.4183
80.2596 100 78.4184
81.3787 100 78.4184
82.501 100 78.4184
83.6234 100 78.4184
84.7459 100 78.4184
85.8683 100 78.4184
86.9908 100 78.4184
88.1133 100 78.4184
89.2357 100 78.4184
90.3582 100 78.4184
91.4807 100 78.4184
92.6031 100 78.4184
93.7256 100 78.4184
94.848 100 78.4184
95.9705 100 78.4184
97.093 100 78.4184
98.2154 100 78.4184
99.3379 100 78.4184
100.46 100 78.4184
101.583 100 78.4184
102.705 100 78.4184
103.828 100 78.4184
104.95 100 78.4184
106.073 100 78.4184
107.195 100 78.4184
108.318 100 78.4184
109.44 100 78.4184
110.563 100 78.4184
111.685 100 78.4184
112.807 100 78.4184
113.93 100 78.4184
115.052 100 78.4184
116.175 100 78.4184
117.297 100 78.4184
118.42 100 78.4184
119.542 100 78.4184
120.665 100 78.4184
121.787 100 78.4184
122.91 100 78.4184
124.032 100 78.4184
125.155 100 78.4184
126.277 100 78.4184
127.399 100 78.4184
128.522 100 78.4184
129.644 100 78.4184
130.767 100 78.4184
131.889 100 78.4184
133.012 100 78.4184
134.134 100 78.4184
135.257 100 78.4184
136.379 100 78.4184
137.502 100 78.4184
138.624 100 78.4184
139.747 100 78.4184
140.869 100 78.4184
141.991 100 78.4184
143.114 100 78.4184
144.233 100 78.4184
145.341 100 78.4183
79.1511 100 79.5406
80.2596 100 79.5406
81.3787 100 79.5406
82.501 100 79.5406
83.6234 100 79.5406
84.7459 100 79.5406
85.8683 100 79.5406
86.9908 100 79.5406
88.1133 100 79.5406
89.2357 100 79.5406
90.3582 100 79.5406
91.4807 100 79.5406
92.6031 100 79.5406
93.7256 100 79.5406
94.848 100 79.5406
95.9705 100 79.5406
97.093 100 79.5406
98.2154 100 79.5406
99.3379 100 79.5406
100.46 100 79.5406
101.583 100 79.5406
102.705 100 79.5406
103.828 100 79.5406
104.95 100 79.5406
106.073 100 79.5406
107.195 100 79.5406
108.318 100 79.5406
109.44 100 79.5406
110.563 100 79.5406
111.685 100 79.5406
112.807 100 79.5406
113.93 100 79.5406
115.052 100 79.5406
116.175 100 79.5406
117.297 100 79.5406
118.42 100 79.5406
119.542 100 79.5406
120.665 100 79.5406
121.787 100 79.5406
122.91 100 79.5406
124.032 100 79.5406
125.155 100 79.5406
126.277 100 79.5406
127.399 100 79.5406
128.522 100 79.5406
129.644 100 79.5406
130.767 100 79.5406
131.889 100 79.5406
133.012 100 79.5406
134.134 100 79.5406
135.257 100 79.5406
136.379 100 79.5406
137.502 100 79.5406
138.624 100 79.5406
139.747 100 79.5406
140.869 100 79.5406
141.991 100 79.5406
143.114 100 79.5406
144.233 100 79.5406
145.341 100 79.5406
79.1511 100 80.6631
80.2596 100 80.6631
81.3787 100 80.6631
82.501 100 80.6631
83.6234 100 80.6631
84.7459 100 80.6631
85.8683 100 80.6631
86.9908 100 80.6631
88.1133 100 80.6631
89.2357 100 80.6631
90.3582 100 80.6631
91.4807 100 80.6631
92.6031 100 80.6631
93.7256 100 80.6631
94.848 100 80.6631
95.9705 100 80.6631
97.093 100 80.6631
98.2154 100 80.6631
99.3379 100 80.6631
100.46 100 80.6631
101.583 100 80.6631
102.705 100 80.6631
103.828 100 80.6631
104.95 100 80.6631
106.073 100 80.6631
107.195 100 80.6631
108.318 100 80.6631
109.44 100 80.6631
110.563 100 80.6631
111.685 100 80.6631
112.807 100 80.6631
113.93 100 80.6631
115.052 100 80.6631
116.175 100 80.6631
117.297 100 80.6631
118.42 100 80.6631
119.542 100 80.6631
120.665 100 80.6631
121.787 100 80.6631
122.91 100 80.6631
124.032 100 80.6631
125.155 100 80.6631
126.277 100 80.6631
127.399 100 80.6631
128.522 100 80.6631
129.644 100 80.6631
130.767 100 80.6631
131.889 100 80.6631
133.012 100 80.6631
134.134 100 80.6631
135.257 100 80.6631
136.379 100 80.6631
137.502 100 80.6631
138.624 100 80.6631
139.747 100 80.6631
140.869 100 80.6631
141.991 100 80.6631
143.114 100 80.6631
144.233 100 80.6631
145.341 100 80.6631
79.1511 100 81.7855
80.2596 100 81.7855
81.3787 100 81.7855
82.501 100 81.7855
83.6234 100 81.7855
84.7459 100 81.7855
85.8683 100 81.7855
86.9908 100 81.7855
88.1133 100 81.7855
89.2357 100 81.7855
90.3582 100 81.7855
91.4807 100 81.7855
92.6031 100 81.7855
93.7256 100 81.7855
94.848 100 81.7855
95.9705 100 81.7855
97.093 100 81.7855
98.2154 100 81.7855
99.3379 100 81.7855
100.46 100 81.7855
101.583 100 81.7855
102.705 100 81.7855
103.828 100 81.7855
104.95 100 81.7855
106.073 100 81.7855
107.195 100 81.7855
108.318 100 81.7855
109.44 100 81.7855
110.563 100 81.7855
111.685 100 81.7855
112.807 100 81.7855
113.93 100 81.7855
115.052 100 81.7855
116.175 100 81.7855
117.297 100 81.7855
118.42 100 81.7855
119.542 100 81.7855
120.665 100 81.7855
121.787 100 81.7855
122.91 100 81.7855
124.032 100 81.7855
125.155 100 81.7855
126.277 100 81.7855
127.399 100 81.7855
128.522 100 81.7855
129.644 100 81.7855
130.767 100 81.7855
131.889 100 81.7855
133.012 100 81.7855
134.134 100 81.7855
135.257 100 81.7855
136.379 100 81.7855
137.502 100 81.7855
138.624 100 81.7855
139.747 100 81.7855
140.869 100 81.7855
141.991 100 81.7855
143.114 100 81.7855
144.233 100 81.7855
145.341 100 81.7855
79.1511 100 82.908
80.2596 100 82.908
81.3787 100 82.908
82.501 100 82.908
83.6234 100 82.908
84.7459 100 82.908
85.8683 100 82.908
86.9908 100 82.908
88.1133 100 82.908
89.2357 100 82.908
90.3582 100 82.908
91.4807 100 82.908
92.6031 100 82.908
93.7256 100 82.908
94.848 100 82.908
95.9705 100 82.908
97.093 100 82.908
98.2154 100 82.908
99.3379 100 82.908
100.46 100 82.908
101.583 100 82.908
102.705 100 82.908
103.828 100 82.908
104.95 100 82.908
106.073 100 82.908
107.195 100 82.908
108.318 100 82.908
109.44 100 82.908
110.563 100 82.908
111.685 100 82.908
112.807 100 82.908
113.93 100 82.908
115.052 100 82.908
116.175 100 82.908
117.297 100 82.908
118.42 100 82.908
119.542 100 82.908
120.665 100 82.908
121.787 100 82.908
122.91 100 82.908
124.032 100 82.908
125.155 100 82.908
126.277 100 82.908
127.399 100 82.908
128.522 100 82.908
129.644 100 82.908
130.767 100 82.908
131.889 100 82.908
133.012 100 82.908
134.134 100 82.908
135.257 100 82.908
136.379 100 82.908
137.502 100 82.908
138.624 100 82.908
139.747 100 82.908
140.869 100 82.908
141.991 100 82.908
143.114 100 82.908
144.233 100 82.908
145.341 100 82.908
79.1511 100 84.0305
80.2596 100 84.0305
81.3787 100 84.0305
82.501 100 84.0305
83.6234 100 84.0305
84.7459 100 84.0305
85.8683 100 84.0305
86.9908 100 84.0305
88.1133 100 84.0305
89.2357 100 84.0305
90.3582 100 84.0305
91.4807 100 84.0305
92.6031 100 84.0305
93.7256 100 84.0305
94.848 100 84.0305
95.9705 100 84.0305
97.093 100 84.0305
98.2154 100 84.0305
99.3379 100 84.0305
100.46 100 84.0305
101.583 100 84.0305
102.705 100 84.0305
103.828 100 84.0305
104.95 100 84.0305
106.073 100 84.0305
107.195 100 84.0305
108.318 100 84.0305
109.44 100 84.0305
110.563 100 84.0305
111.685 100 84.0305
112.807 100 84.0305
113.93 100 84.0305
115.052 100 84.0305
116.175 100 84.0305
117.297 100 84.0305
118.42 100 84.0305
119.542 100 84.0305
120.665 100 84.0305
121.787 100 84.0305
122.91 100 84.0305
124.032 100 84.0305
125.155 100 84.0305
126.277 100 84.0305
127.399 100 84.0305
128.522 100 84.0305
129.644 100 84.0305
130.767 100 84.0305
131.889 100 84.0305
133.012 100 84.0305
134.134 100 84.0305
135.257 100 84.0305
136.379 100 84.0305
137.502 100 84.0305
138.624 100 84.0305
139.747 100 84.0305
140.869 100 84.0305
141.991 100 84.0305
143.114 100 84.0305
144.233 100 84.0305
145.341 100 84.0305
79.1511 100 85.1529
80.2596 100 85.1529
81.3787 100 85.1529
82.501 100 85.1529
83.6234 100 85.1529
84.7459 100 85.1529
85.8683 100 85.1529
86.9908 100 85.1529
88.1133 100 85.1529
89.2357 100 85.1529
90.3582 100 85.1529
91.4807 100 85.1529
92.6031 100 85.1529
93.7256 100 85.1529
94.848 100 85.1529
95.9705 100 85.1529
97.093 100 85.1529
98.2154 100 85.1529
99.3379 100 85.1529
100.46 100 85.1529
101.583 100 85.1529
102.705 100 85.1529
[...]
POINT_DATA 1600
SCALARS mass double
LOOKUP_TABLE default
1
1
1
1
1
1
1
1
1
1
1
1
1
1
1
1
1
1
1
1
1
1
1
1
1
1
1
1
1
1
1
1
1
1
1
1
1
1
1
1
1
1
1
1
1
1
1
1
1
1
1
1
1
1
1
1
1
1
1
1
1
1
1
1
1
1
1
1
1
1
1
1
1
1
1
1
1
1
1
1
1
1
1
1
1
1
1
1
1
1
1
1
1
1
1
1
1
1
1
1
1
1
1
1
1
1
1
1
1
1
1
1
1
1
1
1
1
1
1
1
1
1
1
1
1
1
1
1
1
1
1
1
1
1
1
1
1
1
1
1
1
1
1
1
1
1
1
1
1
1
1
1
1
1
1
1
1
1
1
1
1
1
1
1
1
1
1
1
1
1
1
1
1
1
1
1
1
1
1
1
1
1
1
1
1
1
1
1
1
1
1
1
1
1
1
1
1
1
1
1
1
1
1
1
1
1
1
1
1
1
1
1
1
1
1
1
1
1
1
1
1
1
1
1
1
1
1
1
1
1
1
1
1
1
1
1
1
1
1
1
1
1
1
1
1
1
1
1
1
1
1
1
1
1
1
1
1
1
1
1
1
1
1
1
1
1
1
1
1
1
1
1
1
1
1
1
1
1
1
1
1
1
1
1
1
1
1
1
1
1
1
1
1
1
1
1
1
1
1
1
1
1
1
1
1
1
1
1
1
1
1
1
1
1
1
1
1
1
1
1
1
1
1
1
1
1
1
1
1
1
1
1
1
1
1
1
1
1
1
1
1
1
1
1
1
1
1
1
1
1
1
1
1
1
1
1
1
1
1
1
1
1
1
1
1
1
1
1
1
1
1
1
1
1
1
1
1
1
1
1
1
1
1
1
1
1
1
1
1
1
1
1
1
1
1
1
1
1
1
1
1
1
1
1
1
1
1
1
1
1
1
1
1
1
1
1
1
1
1
1
1
1
1
1
1
1
1
1
1
1
1
1
1
1
1
1
1
1
1
1
1
1
1
1
1
1
1
1
1
1
1
1
1
1
1
1
1
1
1
1
1
1
1
1
1
1
1
1
1
1
1
1
1
1
1
1
1
1
1
1
1
1
1
1
1
1
1
1
1
1
1
1
1
1
1
1
1
1
1
1
1
1
1
1
1
1
1
1
1
1
1
1
1
1
1
1
1
1
1
1
1
1
1
1
1
1
1
1
1
1
1
1
1
1
1
1
1
1
1
1
1
1
1
1
1
1
1
1
1
1
1
1
1
1
1
1
1
1
1
1
1
1
1
1
1
1
1
1
1
1
1
1
1
1
1
1
1
1
1
1
1
1
1
1
1
1
1
1
1
1
1
1
1
1
1
1
1
1
1
1
1
1
1
1
1
1
1
1
1
1
1
1
1
1
1
1
1
1
1
1
1
1
1
1
1
1
1
1
1
1
1
1
1
1
1
1
1
1
1
1
1
1
1
1
1
1
1
1
1
1
1
1
1
1
1
1
1
1
1
1
1
1
1
1
1
1
1
1
1
1
1
1
1
1
1
1
1
1
1
1
1
1
1
1
1
1
1
1
1
1
1
1
1
1
1
1
1
1
1
1
1
1
1
1
1
1
1
1
1
1
1
1
1
1
1
1
1
1
1
1
1
1
1
1
1
1
1
1
1
1
1
1
1
1
1
1
1
1
1
1
1
1
1
1
1
1
1
1
1
1
1
1
1
1
1
1
1
1
1
1
1
1
1
1
1
1
1
1
1
1
1
1
1
1
1
1
1
1
1
1
1
1
1
1
1
1
1
1
1
1
1
1
1
1
1
1
1
1
1
1
1
1
1
1
1
1
1
1
1
1
1
1
1
1
1
1
1
1
1
1
1
1
1
1
1
1
1
1
1
1
1
1
1
1
1
1
1
1
1
1
1
1
1
1
1
1
1
1
1
1
1
1
1
1
1
1
1
1
1
1
1
1
1
1
1
1
1
1
1
1
1
1
1
1
1
1
1
1
1
1
1
1
1
1
1
1
1
1
1
1
1
1
1
1
1
1
1
1
1
1
1
1
1
1
1
1
1
1
1
1
1
1
1
1
1
1
1
1
1
1
1
1
1
1
1
1
1
1
1
1
1
1
1
1
1
1
1
1
1
1
1
1
1
1
1
1
1
1
1
1
1
1
1
1
1
1
1
1
1
1
1
1
1
1
1
1
1
1
1
1
1
1
1
1
1
1
1
1
1
1
1
1
1
1
1
1
1
1
1
1
1
1
1
1
1
1
1
1
1
1
1
1
1
1
1
1
1
1
1
1
1
1
1
1
1
1
1
1
1
1
1
1
1
1
1
1
1
1
1
1
1
1
1
1
1
1
1
1
1
1
1
1
1
1
1
1
1
1
1
1
1
1
1
1
1
1
1
1
1
1
1
1
1
1
1
1
1
1
1
1
1
1
1
1
1
1
1
1
1
1
1
1
1
1
1
1
1
1
1
1
1
1
1
1
1
1
1
1
1
1
1
1
1
1
1
1
1
1
1
1
1
1
1
1
1
1
1
1
1
1
1
1
1
1
1
1
1
1
1
1
1
1
1
1
1
1
1
1
1
1
1
1
1
1
1
1
1
1
1
1
1
1
1
1
1
1
1
1
1
1
1
1
1
1
1
1
1
1
1
1
1
1
1
1
1
1
1
1
1
1
1
1
1
1
1
1
1
1
1
1
1
1
1
1
1
1
1
1
1
1
1
1
1
1
1
1
1
1
1
1
1
1
1
1
1
1
1
1
1
1
1
1
1
1
1
1
1
1
1
1
1
1
1
1
1
1
1
1
1
1
1
1
1
1
1
1
1
1
1
1
1
1
1
1
1
1
1
1
1
1
1
1
1
1
1
1
1
1
1
1
1
1
1
1
1
1
1
1
1
1
1
1
1
1
1
1
1
1
1
1
1
1
1
1
1
1
1
1
1
1
1
1
1
1
1
1
1
1
1
1
1
1
1
1
1
1
1
1
1
1
1
1
1
1
1
1
1
1
1
1
1
1
1
1
1
1
1
1
1
1
1
1
1
1
1
1
1
1
1
1
1
1
1
1
1
1
1
1
1
1
1
1
1
1
1
1
1
1
1
1
1
1
1
1
1
1
1
1
1
1
1
1
1
1
1
1
1
1
1
1
1
1
1
1
1
1
1
1
1
1
1
1
1
1
1
1
1
1
1
1
1
1
1
1
1
1
1
1
1
1
1
1
1
1
1
1
1
1
1
1
1
1
1
1
1
1
1
1
1
1
1
1
1
1
1
1
1
1
1
1
1
1
1
1
1
1
1
1
1
1
1
1
1
1
1
1
1
1
1
1
1
1
1
1
1
1
1
1
1
1
1
1
1
1
1
1
1
1
1
1
1
1
1
1
1
1
1
1
1
1
1
1
1
1
1
1
1
1
1
1
1
1
1
1
1
1
1
1
1
1
1
1
1
1
1
1
1
1
1
1
1
1
1
1
1
1
1
1
1
1
1
1
1
1
1
1
1
1
1
1
1
1
1
1
1
1
1
1
1
1
1
1
1
1
1
1
1
1
1
1
1
1
1
1
1
1
1
1
1
1
1
1
1
1
1
1
1
1
1
1
1
1
1
1
1
1
1
1
1
1
VECTORS force double
1.51981 0 1.51981
1.84191 0 2.45629
0.368516 0 2.39278
0.0337784 0 2.28301
0.00215183 0 2.28095
5.35035e-05 0 2.28083
3.51423e-07 0 2.28083
-5.61786e-09 0 2.28083
1.24882e-11 0 2.28083
3.46945e-16 0 2.28083
3.88578e-16 0 2.28083
3.46945e-16 0 2.28083
3.88578e-16 0 2.28083
-1.77497e-14 0 2.28083
3.95765e-12 0 2.28083
-7.9205e-12 0 2.28083
7.92082e-12 0 2.28083
-3.95733e-12 0 2.28083
1.85546e-14 0 2.28083
3.88578e-16 0 2.28083
3.46945e-16 0 2.28083
3.88578e-16 0 2.28083
3.46945e-16 0 2.28083
3.46945e-16 0 2.28083
-1.80411e-14 0 2.28083
3.95765e-12 0 2.28083
-7.92055e-12 0 2.28083
7.93891e-12 0 2.28083
-7.93876e-12 0 2.28083
7.92082e-12 0 2.28083
-3.95733e-12 0 2.28083
1.85546e-14 0 2.28083
3.88578e-16 0 2.28083
-1.77497e-14 0 2.28083
3.95765e-12 0 2.28083
-7.9205e-12 0 2.28083
7.93891e-12 0 2.28083
-7.93876e-12 0 2.28083
7.92082e-12 0 2.28083
-3.95733e-12 0 2.28083
1.85546e-14 0 2.28083
3.88578e-16 0 2.28083
-1.77497e-14 0 2.28083
3.95765e-12 0 2.28083
-7.9205e-12 0 2.28083
7.93891e-12 0 2.28083
-7.93876e-12 0 2.28083
7.93891e-12 0 2.28083
-7.93876e-12 0 2.28083
7.903e-12 0 2.28083
-1.11022e-16 0 2.28083
-2.0049e-11 0 2.28083
5.54924e-09 0 2.28083
-3.51235e-07 0 2.28083
-5.35037e-05 0 2.28083
-0.00215183 0 2.28095
-0.0337784 0 2.28301
-0.368516 0 2.39278
-1.84191 0 2.45629
-1.51981 0 1.51981
2.45629 0 1.84191
3.98138 0 3.98138
0.518679 0 3.84629
0.0609692 0 3.82994
0.00275 0 3.82943
5.02794e-05 0 3.8294
1.70449e-07 0 3.8294
-6.88944e-09 0 3.8294
2.16299e-11 0 3.8294
1.33227e-15 0 3.8294
9.4369e-16 0 3.8294
1.33227e-15 0 3.8294
9.4369e-16 0 3.8294
-1.73195e-14 0 3.8294
3.86136e-12 0 3.8294
-7.72798e-12 0 3.8294
7.7276e-12 0 3.8294
-3.85997e-12 0 3.8294
1.90958e-14 0 3.8294
9.4369e-16 0 3.8294
1.33227e-15 0 3.8294
9.4369e-16 0 3.8294
1.33227e-15 0 3.8294
1.33227e-15 0 3.8294
-1.80411e-14 0 3.8294
3.86136e-12 0 3.8294
-7.7271e-12 0 3.8294
7.74625e-12 0 3.8294
-7.74575e-12 0 3.8294
7.7276e-12 0 3.8294
-3.85997e-12 0 3.8294
1.90958e-14 0 3.8294
9.4369e-16 0 3.8294
-1.73195e-14 0 3.8294
3.86136e-12 0 3.8294
-7.72798e-12 0 3.8294
7.74625e-12 0 3.8294
-7.74575e-12 0 3.8294
7.7276e-12 0 3.8294
-3.85997e-12 0 3.8294
1.90958e-14 0 3.8294
9.4369e-16 0 3.8294
-1.73195e-14 0 3.8294
3.86136e-12 0 3.8294
-7.72798e-12 0 3.8294
7.74625e-12 0 3.8294
-7.74575e-12 0 3.8294
7.74625e-12 0 3.8294
-7.74575e-12 0 3.8294
7.70983e-12 0 3.8294
5.55112e-17 0 3.8294
-2.90554e-11 0 3.8294
6.86352e-09 0 3.8294
-1.70458e-07 0 3.8294
-5.02793e-05 0 3.8294
-0.00275 0 3.82943
-0.0609692 0 3.82994
-0.518679 0 3.84629
-3.98138 0 3.98138
-2.45629 0 1.84191
2.39278 0 0.368516
3.84629 0 0.518679
0.509679 0 0.509679
0.0517157 0 0.501162
0.00260015 0 0.501304
4.96029e-05 0 0.501312
1.90765e-07 0 0.501312
-6.3788e-09 0 0.501312
1.9283e-11 0 0.501312
-2.86311e-16 0 0.501312
-2.77556e-16 0 0.501312
-2.86311e-16 0 0.501312
-2.77556e-16 0 0.501312
-1.83829e-14 0 0.501312
3.8649e-12 0 0.501312
-7.73676e-12 0 0.501312
7.73614e-12 0 0.501312
-3.86563e-12 0 0.501312
1.83654e-14 0 0.501312
-2.77556e-16 0 0.501312
-2.86311e-16 0 0.501312
-2.77556e-16 0 0.501312
-2.86311e-16 0 0.501312
-2.86311e-16 0 0.501312
-1.80411e-14 0 0.501312
3.8649e-12 0 0.501312
-7.73681e-12 0 0.501312
7.75512e-12 0 0.501312
-7.75546e-12 0 0.501312
7.73703e-12 0 0.501312
-3.86563e-12 0 0.501312
1.83654e-14 0 0.501312
-2.77556e-16 0 0.501312
-1.83829e-14 0 0.501312
3.8649e-12 0 0.501312
-7.73676e-12 0 0.501312
7.75423e-12 0 0.501312
-7.75546e-12 0 0.501312
7.73703e-12 0 0.501312
-3.86563e-12 0 0.501312
1.83654e-14 0 0.501312
-2.77556e-16 0 0.501312
-1.83829e-14 0 0.501312
3.8649e-12 0 0.501312
-7.73676e-12 0 0.501312
7.75423e-12 0 0.501312
-7.75546e-12 0 0.501312
7.75512e-12 0 0.501312
-7.75546e-12 0 0.501312
7.71921e-12 0 0.501312
-4.44089e-16 0 0.501312
-2.76276e-11 0 0.501312
6.52605e-09 0 0.501312
-1.91174e-07 0 0.501312
-4.96026e-05 0 0.501312
-0.00260015 0 0.501304
-0.0517157 0 0.501162
-0.509679 0 0.509679
-3.84629 0 0.518679
-2.39278 0 0.368516
2.28301 0 0.0337784
3.82994 0 0.0609692
0.501162 0 0.0517157
0.0543828 0 0.0543828
0.00271187 0 0.054389
5.04603e-05 0 0.0543826
1.86253e-07 0 0.0543826
-6.4197e-09 0 0.0543826
1.93695e-11 0 0.0543826
4.44089e-16 0 0.0543826
5.55112e-17 0 0.0543826
4.44089e-16 0 0.0543826
5.55112e-17 0 0.0543826
-1.82077e-14 0 0.0543826
3.86802e-12 0 0.0543826
-7.74175e-12 0 0.0543826
7.74136e-12 0 0.0543826
-3.86707e-12 0 0.0543826
1.82077e-14 0 0.0543826
5.55112e-17 0 0.0543826
4.44089e-16 0 0.0543826
5.55112e-17 0 0.0543826
4.44089e-16 0 0.0543826
4.44089e-16 0 0.0543826
-1.80411e-14 0 0.0543826
3.86802e-12 0 0.0543826
-7.74131e-12 0 0.0543826
7.76001e-12 0 0.0543826
-7.75907e-12 0 0.0543826
7.74136e-12 0 0.0543826
-3.86707e-12 0 0.0543826
1.82077e-14 0 0.0543826
5.55112e-17 0 0.0543826
-1.82077e-14 0 0.0543826
3.86802e-12 0 0.0543826
-7.74175e-12 0 0.0543826
7.76001e-12 0 0.0543826
-7.75907e-12 0 0.0543826
7.74136e-12 0 0.0543826
-3.86707e-12 0 0.0543826
1.82077e-14 0 0.0543826
5.55112e-17 0 0.0543826
-1.82077e-14 0 0.0543826
3.86802e-12 0 0.0543826
-7.74175e-12 0 0.0543826
7.76001e-12 0 0.0543826
-7.75907e-12 0 0.0543826
7.76001e-12 0 0.0543826
-7.75907e-12 0 0.0543826
7.7236e-12 0 0.0543826
4.996e-16 0 0.0543826
-2.78475e-11 0 0.0543826
6.59064e-09 0 0.0543826
-1.86574e-07 0 0.0543826
-5.04601e-05 0 0.0543826
-0.00271187 0 0.054389
-0.0543828 0 0.0543828
-0.501162 0 0.0517157
-3.82994 0 0.0609692
-2.28301 0 0.0337784
2.28095 0 0.00215183
3.82943 0 0.00275
0.501304 0 0.00260015
0.054389 0 0.00271187
0.00270427 0 0.00270427
5.03185e-05 0 0.0027042
1.85949e-07 0 0.0027042
-6.41627e-09 0 0.0027042
1.93691e-11 0 0.0027042
-2.86311e-16 0 0.0027042
-2.77556e-16 0 0.0027042
-2.86311e-16 0 0.0027042
-2.77556e-16 0 0.0027042
-1.83829e-14 0 0.0027042
3.86756e-12 0 0.0027042
-7.74253e-12 0 0.0027042
7.74235e-12 0 0.0027042
-3.86829e-12 0 0.0027042
1.83654e-14 0 0.0027042
-2.77556e-16 0 0.0027042
-2.86311e-16 0 0.0027042
-2.77556e-16 0 0.0027042
-2.86311e-16 0 0.0027042
-2.86311e-16 0 0.0027042
-1.80411e-14 0 0.0027042
3.86756e-12 0 0.0027042
-7.74258e-12 0 0.0027042
7.76045e-12 0 0.0027042
-7.76124e-12 0 0.0027042
7.74235e-12 0 0.0027042
-3.86829e-12 0 0.0027042
1.83654e-14 0 0.0027042
-2.77556e-16 0 0.0027042
-1.83829e-14 0 0.0027042
3.86756e-12 0 0.0027042
-7.74253e-12 0 0.0027042
7.76045e-12 0 0.0027042
-7.76124e-12 0 0.0027042
7.74235e-12 0 0.0027042
-3.86829e-12 0 0.0027042
1.83654e-14 0 0.0027042
-2.77556e-16 0 0.0027042
-1.83829e-14 0 0.0027042
3.86756e-12 0 0.0027042
-7.74253e-12 0 0.0027042
7.76045e-12 0 0.0027042
-7.76124e-12 0 0.0027042
7.76045e-12 0 0.0027042
-7.76124e-12 0 0.0027042
7.72454e-12 0 0.0027042
-4.44089e-16 0 0.0027042
-2.78489e-11 0 0.0027042
6.5865e-09 0 0.0027042
-1.86261e-07 0 0.0027042
-5.03183e-05 0 0.0027042
-0.00270427 0 0.00270427
-0.054389 0 0.00271187
-0.501304 0 0.00260015
-3.82943 0 0.00275
-2.28095 0 0.00215183
2.28083 0 5.35035e-05
3.8294 0 5.02794e-05
0.501312 0 4.96029e-05
0.0543826 0 5.04603e-05
0.0027042 0 5.03185e-05
5.03241e-05 0 5.03241e-05
1.85987e-07 0 5.03242e-05
-6.41633e-09 0 5.03242e-05
1.93699e-11 0 5.03242e-05
8.88178e-16 0 5.03242e-05
4.996e-16 0 5.03242e-05
8.88178e-16 0 5.03242e-05
4.996e-16 0 5.03242e-05
-1.77636e-14 0 5.03242e-05
3.86935e-12 0 5.03242e-05
-7.74264e-12 0 5.03242e-05
7.7427e-12 0 5.03242e-05
-3.86841e-12 0 5.03242e-05
1.86517e-14 0 5.03242e-05
4.996e-16 0 5.03242e-05
8.88178e-16 0 5.03242e-05
4.996e-16 0 5.03242e-05
8.88178e-16 0 5.03242e-05
8.88178e-16 0 5.03242e-05
-1.80411e-14 0 5.03242e-05
3.86935e-12 0 5.03242e-05
-7.74264e-12 0 5.03242e-05
7.76135e-12 0 5.03242e-05
-7.7604e-12 0 5.03242e-05
7.7427e-12 0 5.03242e-05
-3.86841e-12 0 5.03242e-05
1.86517e-14 0 5.03242e-05
4.996e-16 0 5.03242e-05
-1.77636e-14 0 5.03242e-05
3.86935e-12 0 5.03242e-05
-7.74264e-12 0 5.03242e-05
7.76135e-12 0 5.03242e-05
-7.7604e-12 0 5.03242e-05
7.7427e-12 0 5.03242e-05
-3.86841e-12 0 5.03242e-05
1.86517e-14 0 5.03242e-05
4.996e-16 0 5.03242e-05
-1.77636e-14 0 5.03242e-05
3.86935e-12 0 5.03242e-05
-7.74264e-12 0 5.03242e-05
7.76135e-12 0 5.03242e-05
-7.7604e-12 0 5.03242e-05
7.76135e-12 0 5.03242e-05
-7.7604e-12 0 5.03242e-05
7.72493e-12 0 5.03242e-05
5.55112e-17 0 5.03242e-05
-2.78488e-11 0 5.03242e-05
6.58661e-09 0 5.03242e-05
-1.86311e-07 0 5.03242e-05
-5.0324e-05 0 5.03241e-05
-0.0027042 0 5.03185e-05
-0.0543826 0 5.04603e-05
-0.501312 0 4.96029e-05
-3.8294 0 5.02794e-05
-2.28083 0 5.35035e-05
2.28083 0 3.51423e-07
3.8294 0 1.70449e-07
0.501312 0 1.90765e-07
0.0543826 0 1.86253e-07
0.0027042 0 1.85949e-07
5.03242e-05 0 1.85987e-07
1.85986e-07 0 1.85986e-07
-6.41633e-09 0 1.85986e-07
1.93687e-11 0 1.85986e-07
1.57779e-16 0 1.85986e-07
-7.21645e-16 0 1.85986e-07
1.57779e-16 0 1.85986e-07
-7.21645e-16 0 1.85986e-07
-1.79389e-14 0 1.85986e-07
3.86756e-12 0 1.85986e-07
-7.74253e-12 0 1.85986e-07
7.74235e-12 0 1.85986e-07
-3.86874e-12 0 1.85986e-07
1.79213e-14 0 1.85986e-07
-7.21645e-16 0 1.85986e-07
1.57779e-16 0 1.85986e-07
-7.21645e-16 0 1.85986e-07
1.57779e-16 0 1.85986e-07
-7.304e-16 0 1.85986e-07
-1.80411e-14 0 1.85986e-07
3.86756e-12 0 1.85986e-07
-7.74258e-12 0 1.85986e-07
7.76045e-12 0 1.85986e-07
-7.76124e-12 0 1.85986e-07
7.74235e-12 0 1.85986e-07
-3.86874e-12 0 1.85986e-07
1.79213e-14 0 1.85986e-07
-7.21645e-16 0 1.85986e-07
-1.79389e-14 0 1.85986e-07
3.86756e-12 0 1.85986e-07
-7.74253e-12 0 1.85986e-07
7.76045e-12 0 1.85986e-07
-7.76124e-12 0 1.85986e-07
7.74235e-12 0 1.85986e-07
-3.86874e-12 0 1.85986e-07
1.79213e-14 0 1.85986e-07
-7.21645e-16 0 1.85986e-07
-1.79389e-14 0 1.85986e-07
3.86756e-12 0 1.85986e-07
-7.74253e-12 0 1.85986e-07
7.76045e-12 0 1.85986e-07
-7.76124e-12 0 1.85986e-07
7.76045e-12 0 1.85986e-07
-7.76124e-12 0 1.85986e-07
7.72454e-12 0 1.85986e-07
-4.44089e-16 0 1.85986e-07
-2.78489e-11 0 1.85986e-07
6.58661e-09 0 1.85986e-07
-1.8631e-07 0 1.85986e-07
-5.0324e-05 0 1.85987e-07
-0.0027042 0 1.8595e-07
-0.0543826 0 1.86254e-07
-0.501312 0 1.90763e-07
-3.8294 0 1.70445e-07
-2.28083 0 3.5142e-07
2.28083 0 -5.61786e-09
3.8294 0 -6.88944e-09
0.501312 0 -6.3788e-09
0.0543826 0 -6.4197e-09
0.0027042 0 -6.41627e-09
5.03242e-05 0 -6.41633e-09
1.85986e-07 0 -6.41633e-09
-6.41633e-09 0 -6.41633e-09
1.93699e-11 0 -6.41634e-09
8.88178e-16 0 -6.41634e-09
4.996e-16 0 -6.41634e-09
8.88178e-16 0 -6.41634e-09
4.996e-16 0 -6.41634e-09
-1.77636e-14 0 -6.41634e-09
3.86757e-12 0 -6.41634e-09
-7.74175e-12 0 -6.41633e-09
7.74181e-12 0 -6.41634e-09
-3.86663e-12 0 -6.41634e-09
1.86517e-14 0 -6.41634e-09
4.996e-16 0 -6.41634e-09
8.88178e-16 0 -6.41634e-09
4.996e-16 0 -6.41634e-09
8.88178e-16 0 -6.41634e-09
8.88178e-16 0 -6.41634e-09
-1.80411e-14 0 -6.41634e-09
3.86757e-12 0 -6.41634e-09
-7.74086e-12 0 -6.41633e-09
7.76046e-12 0 -6.41634e-09
-7.75952e-12 0 -6.41633e-09
7.74181e-12 0 -6.41634e-09
-3.86663e-12 0 -6.41634e-09
1.86517e-14 0 -6.41634e-09
4.996e-16 0 -6.41634e-09
-1.77636e-14 0 -6.41634e-09
3.86757e-12 0 -6.41634e-09
-7.74175e-12 0 -6.41633e-09
7.76046e-12 0 -6.41634e-09
-7.75952e-12 0 -6.41633e-09
7.74181e-12 0 -6.41634e-09
-3.86663e-12 0 -6.41634e-09
1.86517e-14 0 -6.41634e-09
4.996e-16 0 -6.41634e-09
-1.77636e-14 0 -6.41634e-09
3.86757e-12 0 -6.41634e-09
-7.74175e-12 0 -6.41633e-09
7.76046e-12 0 -6.41634e-09
-7.75952e-12 0 -6.41633e-09
7.76046e-12 0 -6.41634e-09
-7.75952e-12 0 -6.41633e-09
7.72404e-12 0 -6.41634e-09
5.55112e-17 0 -6.41634e-09
-2.78471e-11 0 -6.41634e-09
6.58661e-09 0 -6.41633e-09
-1.8631e-07 0 -6.41633e-09
-5.0324e-05 0 -6.41633e-09
-0.0027042 0 -6.41628e-09
-0.0543826 0 -6.41968e-09
-0.501312 0 -6.37748e-09
-3.8294 0 -6.89e-09
-2.28083 0 -5.61922e-09
2.28083 0 1.24873e-11
3.8294 0 2.16295e-11
0.501312 0 1.92832e-11
0.0543826 0 1.93696e-11
0.0027042 0 1.9369e-11
5.03242e-05 0 1.93694e-11
1.85986e-07 0 1.93696e-11
-6.41633e-09 0 1.93694e-11
1.93687e-11 0 1.93696e-11
1.57779e-16 0 1.93694e-11
-7.21645e-16 0 1.93696e-11
1.57779e-16 0 1.93694e-11
-7.21645e-16 0 1.93696e-11
-1.79389e-14 0 1.93694e-11
3.86668e-12 0 1.93696e-11
-7.7412e-12 0 1.93686e-11
7.74058e-12 0 1.93694e-11
-3.86785e-12 0 1.93696e-11
1.79213e-14 0 1.93694e-11
-7.21645e-16 0 1.93696e-11
1.57779e-16 0 1.93694e-11
-7.21645e-16 0 1.93696e-11
1.57779e-16 0 1.93694e-11
-7.304e-16 0 1.93696e-11
-1.80411e-14 0 1.93695e-11
3.86668e-12 0 1.93694e-11
-7.74125e-12 0 1.93696e-11
7.75867e-12 0 1.93694e-11
-7.7599e-12 0 1.93696e-11
7.74058e-12 0 1.93694e-11
-3.86785e-12 0 1.93696e-11
1.79213e-14 0 1.93694e-11
-7.21645e-16 0 1.93696e-11
-1.79389e-14 0 1.93694e-11
3.86668e-12 0 1.93696e-11
-7.7412e-12 0 1.93686e-11
7.75867e-12 0 1.93694e-11
-7.7599e-12 0 1.93696e-11
7.74058e-12 0 1.93694e-11
-3.86785e-12 0 1.93696e-11
1.79213e-14 0 1.93694e-11
-7.21645e-16 0 1.93696e-11
-1.79389e-14 0 1.93694e-11
3.86668e-12 0 1.93696e-11
-7.7412e-12 0 1.93686e-11
7.75867e-12 0 1.93694e-11
-7.7599e-12 0 1.93696e-11
7.75867e-12 0 1.93694e-11
-7.7599e-12 0 1.93696e-11
7.72276e-12 0 1.93694e-11
-4.44089e-16 0 1.93696e-11
-2.78476e-11 0 1.93694e-11
6.58661e-09 0 1.93696e-11
-1.8631e-07 0 1.93694e-11
-5.0324e-05 0 1.93696e-11
-0.0027042 0 1.9369e-11
-0.0543826 0 1.93694e-11
-0.501312 0 1.92799e-11
-3.8294 0 2.14895e-11
-2.28083 0 1.24878e-11
2.28083 0 0
3.8294 0 1.02267e-16
0.501312 0 0
0.0543826 0 1.02267e-16
0.0027042 0 0
5.03242e-05 0 0
1.85986e-07 0 1.02267e-16
-6.41634e-09 0 0
1.93699e-11 0 1.02267e-16
8.88178e-16 0 0
4.996e-16 0 1.02267e-16
8.88178e-16 0 0
4.996e-16 0 1.02267e-16
-1.77636e-14 0 0
3.86802e-12 0 1.02267e-16
-7.74131e-12 0 4.44089e-16
7.74136e-12 0 0
-3.86752e-12 0 1.02267e-16
1.86517e-14 0 0
4.996e-16 0 1.02267e-16
8.88178e-16 0 0
4.996e-16 0 1.02267e-16
8.88178e-16 0 0
8.88178e-16 0 1.02267e-16
-1.80411e-14 0 4.44089e-16
3.86802e-12 0 0
-7.74086e-12 0 1.02267e-16
7.76001e-12 0 0
-7.75952e-12 0 1.02267e-16
7.74136e-12 0 0
-3.86752e-12 0 1.02267e-16
1.86517e-14 0 0
4.996e-16 0 1.02267e-16
-1.77636e-14 0 0
3.86802e-12 0 1.02267e-16
-7.74131e-12 0 4.44089e-16
7.76001e-12 0 0
-7.75952e-12 0 1.02267e-16
7.74136e-12 0 0
-3.86752e-12 0 1.02267e-16
1.86517e-14 0 0
4.996e-16 0 1.02267e-16
-1.77636e-14 0 0
3.86802e-12 0 1.02267e-16
-7.74131e-12 0 4.44089e-16
7.76001e-12 0 0
-7.75952e-12 0 1.02267e-16
7.76001e-12 0 0
-7.75952e-12 0 1.02267e-16
7.7236e-12 0 0
-3.88578e-16 0 1.02267e-16
-2.78471e-11 0 0
6.58661e-09 0 1.02267e-16
-1.8631e-07 0 0
-5.0324e-05 0 1.02267e-16
-0.0027042 0 0
-0.0543826 0 0
-0.501312 0 9.71445e-17
-3.8294 0 0
-2.28083 0 1.57779e-16
2.28083 0 0
3.8294 0 1.02267e-16
0.501312 0 0
0.0543826 0 1.02267e-16
0.0027042 0 0
5.03242e-05 0 0
1.85986e-07 0 1.02267e-16
-6.41633e-09 0 0
1.93687e-11 0 1.02267e-16
1.57779e-16 0 0
-7.21645e-16 0 1.02267e-16
1.57779e-16 0 0
-7.21645e-16 0 1.02267e-16
-1.79389e-14 0 0
3.86668e-12 0 1.02267e-16
-7.7412e-12 0 -4.44089e-16
7.74058e-12 0 0
-3.86785e-12 0 1.02267e-16
1.79213e-14 0 0
-7.21645e-16 0 1.02267e-16
1.57779e-16 0 0
-7.21645e-16 0 1.02267e-16
1.57779e-16 0 0
-7.304e-16 0 1.02267e-16
-1.80411e-14 0 4.44089e-16
3.86668e-12 0 0
-7.74125e-12 0 1.02267e-16
7.75867e-12 0 0
-7.7599e-12 0 1.02267e-16
7.74058e-12 0 0
-3.86785e-12 0 1.02267e-16
1.79213e-14 0 0
-7.21645e-16 0 1.02267e-16
-1.79389e-14 0 0
3.86668e-12 0 1.02267e-16
-7.7412e-12 0 -4.44089e-16
7.75867e-12 0 0
-7.7599e-12 0 1.02267e-16
7.74058e-12 0 0
-3.86785e-12 0 1.02267e-16
1.79213e-14 0 0
-7.21645e-16 0 1.02267e-16
-1.79389e-14 0 0
3.86668e-12 0 1.02267e-16
-7.7412e-12 0 -4.44089e-16
7.75867e-12 0 0
-7.7599e-12 0 1.02267e-16
7.75867e-12 0 0
-7.7599e-12 0 1.02267e-16
7.72276e-12 0 0
-4.44089e-16 0 1.02267e-16
-2.78476e-11 0 0
6.58661e-09 0 1.02267e-16
-1.8631e-07 0 0
-5.0324e-05 0 1.02267e-16
-0.0027042 0 0
-0.0543826 0 0
-0.501312 0 9.71445e-17
-3.8294 0 0
-2.28083 0 1.57779e-16
2.28083 0 -1.24873e-11
3.8294 0 -2.16296e-11
0.501312 0 -1.92832e-11
0.0543826 0 -1.93694e-11
0.0027042 0 -1.93697e-11
5.03242e-05 0 -1.93694e-11
1.85986e-07 0 -1.93694e-11
-6.41634e-09 0 -1.93694e-11
1.93695e-11 0 -1.93694e-11
0 0 -1.93694e-11
5.55112e-17 0 -1.93694e-11
0 0 -1.93694e-11
5.55112e-17 0 -1.93694e-11
-1.82077e-14 0 -1.93694e-11
3.86757e-12 0 -1.93694e-11
-7.74131e-12 0 -1.93693e-11
7.74136e-12 0 -1.93694e-11
-3.86796e-12 0 -1.93694e-11
1.86517e-14 0 -1.93694e-11
5.55112e-17 0 -1.93694e-11
0 0 -1.93694e-11
5.55112e-17 0 -1.93694e-11
0 0 -1.93694e-11
0 0 -1.93694e-11
-1.80411e-14 0 -1.93693e-11
3.86757e-12 0 -1.93694e-11
-7.74131e-12 0 -1.93694e-11
7.75957e-12 0 -1.93694e-11
-7.75996e-12 0 -1.93694e-11
7.74136e-12 0 -1.93694e-11
-3.86796e-12 0 -1.93694e-11
1.86517e-14 0 -1.93694e-11
5.55112e-17 0 -1.93694e-11
-1.82077e-14 0 -1.93694e-11
3.86757e-12 0 -1.93694e-11
-7.74131e-12 0 -1.93693e-11
7.75957e-12 0 -1.93694e-11
-7.75996e-12 0 -1.93694e-11
7.74136e-12 0 -1.93694e-11
-3.86796e-12 0 -1.93694e-11
1.86517e-14 0 -1.93694e-11
5.55112e-17 0 -1.93694e-11
-1.82077e-14 0 -1.93694e-11
3.86757e-12 0 -1.93694e-11
-7.74131e-12 0 -1.93693e-11