# vtk DataFile Version 3.0
SiWiRVisFile
ASCII
DATASET UNSTRUCTURED_GRID
POINTS 12 DOUBLE
99.8852 100.615 100
100.115 100.615 100
99.8852 100.385 100
100.115 100.385 100
99.6852 100.015 100
99.9 100.015 100
100.1 100.015 100
100.315 100.015 100
99.6852 99.7852 100
99.9 99.7851 100
100.1 99.7851 100
100.315 99.7852 100
POINT_DATA 12
SCALARS mass double
LOOKUP_TABLE default
1
1
1
1
1
1
1
1
1
1
1
1
VECTORS force double
-492917 492991 0
492917 492991 0
-492944 -491732 0
492944 -491732 0
-1.16666e+06 494314 0
-1.77078e+06 497667 0
1.77078e+06 497667 0
1.16666e+06 494314 0
-1.16657e+06 -494470 0
-1.77082e+06 -498770 0
1.77082e+06 -498770 0
1.16657e+06 -494470 0
VECTORS velocity double
-172.27 172.274 0
172.27 172.274 0
-172.271 -172.185 0
172.271 -172.185 0
-205.981 172.337 0
-88.5625 173.631 0
88.5625 173.631 0
205.981 172.337 0
-205.974 -172.349 0
-88.5624 -173.708 0
88.5624 -173.708 0
205.974 -172.349 0
