# vtk DataFile Version 3.0
SiWiRVisFile
ASCII
DATASET UNSTRUCTURED_GRID
POINTS 12 DOUBLE
99.8655 100.634 100
100.134 100.634 100
99.8655 100.366 100
100.134 100.366 100
99.6588 100.034 100
99.8823 100.035 100
100.118 100.035 100
100.341 100.034 100
99.6588 99.7655 100
99.8823 99.7653 100
100.118 99.7653 100
100.341 99.7655 100
POINT_DATA 12
SCALARS mass double
LOOKUP_TABLE default
1
1
1
1
1
1
1
1
1
1
1
1
VECTORS force double
-62901.4 62953.5 0
62901.4 62953.5 0
-62981.7 -58217.3 0
62981.7 -58217.3 0
-693439 62676.7 0
340487 59952 0
-340487 59952 0
693439 62676.7 0
-693227 -63056.3 0
340456 -64308.7 0
-340456 -64308.7 0
693227 -63056.3 0
VECTORS velocity double
-200.061 200.071 0
200.061 200.071 0
-200.067 -199.682 0
200.067 -199.682 0
-298.986 200.187 0
-160.077 201.512 0
160.077 201.512 0
298.986 200.187 0
-298.964 -200.226 0
-160.08 -201.862 0
160.08 -201.862 0
298.964 -200.226 0
