# vtk DataFile Version 3.0
SiWiRVisFile
ASCII
DATASET UNSTRUCTURED_GRID
POINTS 12 DOUBLE
99.743 100.757 100
100.257 100.757 100
99.7233 100.333 100
100.277 100.333 100
99.4425 100.157 100
99.8269 100.069 100
100.173 100.069 100
100.557 100.157 100
99.4428 99.6429 100
99.807 99.6416 100
100.193 99.6416 100
100.557 99.6429 100
POINT_DATA 12
SCALARS mass double
LOOKUP_TABLE default
1
1
1
1
1
1
1
1
1
1
1
1
VECTORS force double
-6.17858 163.717 0
6.17858 163.717 0
-8200.43 31746.9 0
8200.43 31746.9 0
-3925.14 -2085.26 0
9758.45 -29657.4 0
-9758.45 -29657.4 0
3925.14 -2085.26 0
-1213.1 -11.6713 0
634.864 -156.306 0
-634.864 -156.306 0
1213.1 -11.6713 0
VECTORS velocity double
-204.481 204.534 0
204.481 204.534 0
-296.06 184.536 0
296.06 184.536 0
-369.852 203.337 0
-27.4315 -181.316 0
27.4315 -181.316 0
369.852 203.337 0
-368.41 -204.618 0
-119.93 -206.473 0
119.93 -206.473 0
368.41 -204.618 0
