# vtk DataFile Version 3.0
SiWiRVisFile
ASCII
DATASET UNSTRUCTURED_GRID
POINTS 12 DOUBLE
99.8044 100.696 100
100.196 100.696 100
99.8042 100.307 100
100.196 100.307 100
99.5532 100.096 100
99.8433 100.094 100
100.157 100.094 100
100.447 100.096 100
99.5532 99.7043 100
99.8431 99.7035 100
100.157 99.7035 100
100.447 99.7043 100
POINT_DATA 12
SCALARS mass double
LOOKUP_TABLE default
1
1
1
1
1
1
1
1
1
1
1
1
VECTORS force double
-479.065 517.307 0
479.065 517.307 0
-195629 1.08019e+06 0
195629 1.08019e+06 0
-26922.7 -2456.54 0
213138 -1.07724e+06 0
-213138 -1.07724e+06 0
26922.7 -2456.54 0
-23552 -432.718 0
15179.1 -585.085 0
-15179.1 -585.085 0
23552 -432.718 0
VECTORS velocity double
-204.44 204.461 0
204.44 204.461 0
-215.978 -132.476 0
215.978 -132.476 0
-366.49 204.107 0
-109.569 134.884 0
109.569 134.884 0
366.49 204.107 0
-366.053 -204.581 0
-121.388 -206.395 0
121.388 -206.395 0
366.053 -204.581 0
