# vtk DataFile Version 3.0
SiWiRVisFile
ASCII
DATASET UNSTRUCTURED_GRID
POINTS 12 DOUBLE
99.7021 100.798 100
100.298 100.798 100
99.664 100.37 100
100.336 100.37 100
99.3685 100.197 100
99.8215 100.033 100
100.178 100.033 100
100.632 100.197 100
99.3691 99.602 100
99.783 99.6003 100
100.217 99.6003 100
100.631 99.602 100
POINT_DATA 12
SCALARS mass double
LOOKUP_TABLE default
1
1
1
1
1
1
1
1
1
1
1
1
VECTORS force double
10.5711 140.4 0
-10.5711 140.4 0
1947.22 2050.85 0
-1947.22 2050.85 0
-2374.43 -1356.17 0
-1148.68 -707.335 0
1148.68 -707.335 0
2374.43 -1356.17 0
-229.805 -1.78841 0
92.9749 -125.962 0
-92.9749 -125.962 0
229.805 -1.78841 0
VECTORS velocity double
-204.48 204.564 0
204.48 204.564 0
-296.278 186.825 0
296.278 186.825 0
-370.465 202.995 0
-26.9898 -183.264 0
26.9898 -183.264 0
370.465 202.995 0
-368.534 -204.619 0
-119.87 -206.501 0
119.87 -206.501 0
368.534 -204.619 0
