# vtk DataFile Version 3.0
SiWiRVisFile
ASCII
DATASET UNSTRUCTURED_GRID
POINTS 12 DOUBLE
99.8248 100.675 100
100.175 100.675 100
99.8248 100.325 100
100.175 100.325 100
99.5897 100.075 100
99.8553 100.076 100
100.145 100.076 100
100.41 100.075 100
99.5897 99.7248 100
99.8553 99.7241 100
100.145 99.7241 100
100.41 99.7248 100
POINT_DATA 12
SCALARS mass double
LOOKUP_TABLE default
1
1
1
1
1
1
1
1
1
1
1
1
VECTORS force double
-2013.59 2044.03 0
2013.59 2044.03 0
-18493.7 147761 0
18493.7 147761 0
-75125.5 85.1874 0
67089.6 -145752 0
-67089.6 -145752 0
75125.5 85.1874 0
-73435.5 -1904.82 0
49418.4 -2232.95 0
-49418.4 -2232.95 0
73435.5 -1904.82 0
VECTORS velocity double
-204.315 204.333 0
204.315 204.333 0
-205.272 -193.874 0
205.272 -193.874 0
-361.387 204.225 0
-123.581 196.033 0
123.581 196.033 0
361.387 204.225 0
-361.204 -204.464 0
-124.618 -206.254 0
124.618 -206.254 0
361.204 -204.464 0
