# vtk DataFile Version 3.0
SiWiRVisFile
ASCII
DATASET UNSTRUCTURED_GRID
POINTS 12 DOUBLE
99.7635 100.737 100
100.237 100.737 100
99.7529 100.314 100
100.247 100.314 100
99.4795 100.136 100
99.8297 100.087 100
100.17 100.087 100
100.521 100.136 100
99.4797 99.6634 100
99.819 99.6622 100
100.181 99.6622 100
100.52 99.6634 100
POINT_DATA 12
SCALARS mass double
LOOKUP_TABLE default
1
1
1
1
1
1
1
1
1
1
1
1
VECTORS force double
-36.1976 177.456 0
36.1976 177.456 0
-84182.1 263914 0
84182.1 263914 0
-5999.91 -2475.08 0
87198.7 -261403 0
-87198.7 -261403 0
5999.91 -2475.08 0
-3038.69 -34.3495 0
1722.5 -179.232 0
-1722.5 -179.232 0
3038.69 -34.3495 0
VECTORS velocity double
-204.479 204.517 0
204.479 204.517 0
-291.441 169.753 0
291.441 169.753 0
-369.356 203.565 0
-32.2794 -166.763 0
32.2794 -166.763 0
369.356 203.565 0
-368.198 -204.615 0
-120.048 -206.456 0
120.048 -206.456 0
368.198 -204.615 0
