# vtk DataFile Version 3.0
SiWiRVisFile
ASCII
DATASET UNSTRUCTURED_GRID
POINTS 12 DOUBLE
99.7839 100.716 100
100.216 100.716 100
99.7816 100.299 100
100.218 100.299 100
99.5164 100.116 100
99.8334 100.102 100
100.167 100.102 100
100.484 100.116 100
99.5165 99.6838 100
99.831 99.6829 100
100.169 99.6829 100
100.484 99.6838 100
POINT_DATA 12
SCALARS mass double
LOOKUP_TABLE default
1
1
1
1
1
1
1
1
1
1
1
1
VECTORS force double
-130.46 208.034 0
130.46 208.034 0
-614725 2.35024e+06 0
614725 2.35024e+06 0
-12195.9 -2951.24 0
622732 -2.34715e+06 0
-622732 -2.34715e+06 0
12195.9 -2951.24 0
-8146.63 -113.49 0
4947.7 -230.474 0
-4947.7 -230.474 0
8146.63 -113.49 0
VECTORS velocity double
-204.47 204.498 0
204.47 204.498 0
-256.496 39.0455 0
256.496 39.0455 0
-368.446 203.836 0
-67.7759 -36.3354 0
67.7759 -36.3354 0
368.446 203.836 0
-367.638 -204.608 0
-120.382 -206.436 0
120.382 -206.436 0
367.638 -204.608 0
