# vtk DataFile Version 3.0
SiWiRVisFile
ASCII
DATASET UNSTRUCTURED_GRID
POINTS 12 DOUBLE
99.7226 100.777 100
100.277 100.777 100
99.6937 100.351 100
100.306 100.351 100
99.4055 100.177 100
99.8242 100.051 100
100.176 100.051 100
100.594 100.177 100
99.406 99.6225 100
99.795 99.6209 100
100.205 99.6209 100
100.594 99.6225 100
POINT_DATA 12
SCALARS mass double
LOOKUP_TABLE default
1
1
1
1
1
1
1
1
1
1
1
1
VECTORS force double
5.27568 151.856 0
-5.27568 151.856 0
941.836 5990.95 0
-941.836 5990.95 0
-2978.66 -1698.18 0
112.646 -4300.36 0
-112.646 -4300.36 0
2978.66 -1698.18 0
-514.225 -4.38012 0
243.005 -139.889 0
-243.005 -139.889 0
514.225 -4.38012 0
VECTORS velocity double
-204.481 204.55 0
204.481 204.55 0
-296.423 186.423 0
296.423 186.423 0
-370.197 203.148 0
-26.938 -183.014 0
26.938 -183.014 0
370.197 203.148 0
-368.497 -204.618 0
-119.886 -206.488 0
119.886 -206.488 0
368.497 -204.618 0
