# vtk DataFile Version 3.0
SiWiRVisFile
ASCII
DATASET UNSTRUCTURED_GRID
POINTS 12 DOUBLE
99.8452 100.655 100
100.155 100.655 100
99.8452 100.345 100
100.155 100.345 100
99.6254 100.055 100
99.868 100.055 100
100.132 100.055 100
100.375 100.055 100
99.6254 99.7452 100
99.868 99.7448 100
100.132 99.7448 100
100.375 99.7452 100
POINT_DATA 12
SCALARS mass double
LOOKUP_TABLE default
1
1
1
1
1
1
1
1
1
1
1
1
VECTORS force double
-10090.5 10125.6 0
10090.5 10125.6 0
-11305.1 13312.6 0
11305.1 13312.6 0
-239733 9000.75 0
161176 -11889.2 0
-161176 -11889.2 0
239733 9000.75 0
-239067 -9901.63 0
159688 -10648.1 0
-159688 -10648.1 0
239067 -9901.63 0
VECTORS velocity double
-203.71 203.725 0
203.71 203.725 0
-203.782 -201.927 0
203.782 -201.927 0
-345.644 203.771 0
-134.994 203.916 0
134.994 203.916 0
345.644 203.771 0
-345.579 -203.873 0
-135.073 -205.61 0
135.073 -205.61 0
345.579 -203.873 0
