# vtk DataFile Version 4.0
SiwiRVisFile
ASCII
DATASET STRUCTURED_POINTS
DIMENSIONS 5 5 1
ORIGIN 0 0 0
SPACING 1 1 1
POINT_DATA 25

SCALARS flags double 1
LOOKUP_TABLE default
1
1
1
1
1
1
1
1
1
1
1
1
1
1
1
1
1
1
1
1
1
1
1
1
1

SCALARS density double 1
LOOKUP_TABLE default
0.983307
1.03767
1.00003
0.962527
1.01804
0.986431
1.03262
1.00057
0.968455
1.01248
1.02096
0.946117
0.998941
1.05315
0.978211
1.00154
0.984121
0.997833
1.01358
0.99877
0.973202
1.0598
0.998545
0.939893
1.03321

VECTORS velocity double
-0.00146514 0.0016917 0
-0.0031604 -0.00182325 0
0.000909824 -0.000416993 0
-0.00187743 0.00321652 0
-0.00151494 -0.00104653 0
1.16401e-06 0.00489997 0
-0.00946126 0.000948418 0
-0.0166109 -0.000871203 0
-0.00991205 -0.00239569 0
0.00100763 -0.00408659 0
-0.00130334 0.00673973 0
-0.0146425 0.0208299 0
-0.0219086 -0.000104475 0
-0.0148303 -0.0209466 0
-0.00206169 -0.00463908 0
-0.00722373 0.017829 0
-0.00781057 0.0229046 0
-0.00211581 -0.000636595 0
-0.0104206 -0.0212061 0
-0.00507277 -0.0182764 0
0.0222645 0.012998 0
0.0466097 0.00316087 0
0.0529562 -4.66887e-05 0
0.0459889 -0.00427647 0
0.0292879 -0.0162271 0

