# vtk DataFile Version 4.0
SiwiRVisFile
ASCII
DATASET STRUCTURED_POINTS
DIMENSIONS 5 5 1
ORIGIN 0 0 0
SPACING 1 1 1
POINT_DATA 25

SCALARS flags double 1
LOOKUP_TABLE default
1
1
1
1
1
1
1
1
1
1
1
1
1
1
1
1
1
1
1
1
1
1
1
1
1

SCALARS density double 1
LOOKUP_TABLE default
0.984234
1.03733
1.00012
0.96235
1.01637
0.988701
1.03273
1.00039
0.967666
1.00989
1.0221
0.949449
0.999209
1.0504
0.976978
1.00317
0.9858
0.998251
1.01225
0.99782
0.97586
1.05917
0.998615
0.940506
1.03064

VECTORS velocity double
-0.00135932 0.00165638 0
-0.00228943 -0.00254028 0
0.00175959 -0.000695945 0
-0.00116496 0.00342666 0
-0.00157352 -0.0012545 0
0.000472804 0.00380181 0
-0.00767073 -0.00069202 0
-0.0138703 -0.000934854 0
-0.00817134 -0.00048524 0
0.00131443 -0.00287482 0
-0.00140275 0.0043744 0
-0.0137506 0.0178594 0
-0.0214291 -0.000157554 0
-0.0140189 -0.0182355 0
-0.00245025 -0.00183309 0
-0.00803102 0.0168156 0
-0.0108008 0.0211289 0
-0.00497738 -0.000714237 0
-0.0129676 -0.0191398 0
-0.00592069 -0.0181272 0
0.0221735 0.0124649 0
0.0441393 0.00190768 0
0.0513153 0.00043152 0
0.0440042 -0.00329552 0
0.0279546 -0.0153304 0

