# vtk DataFile Version 4.0
SiwiRVisFile
ASCII
DATASET STRUCTURED_POINTS
DIMENSIONS 50 50 1
ORIGIN 0 0 0
SPACING 1 1 1
POINT_DATA 2500

SCALARS flags double 1
LOOKUP_TABLE default
1
1
1
1
1
1
1
1
1
1
1
1
1
1
1
1
1
1
1
1
1
1
1
1
1
1
1
1
1
1
1
1
1
1
1
1
1
1
1
1
1
1
1
1
1
1
1
1
1
1
1
1
1
1
1
1
1
1
1
1
1
1
1
1
1
1
1
1
1
1
1
1
1
1
1
1
1
1
1
1
1
1
1
1
1
1
1
1
1
1
1
1
1
1
1
1
1
1
1
1
1
1
1
1
1
1
1
1
1
1
1
1
1
1
1
1
1
1
1
1
1
1
1
1
1
1
1
1
1
1
1
1
1
1
1
1
1
1
1
1
1
1
1
1
1
1
1
1
1
1
1
1
1
1
1
1
1
1
1
1
1
1
1
1
1
1
1
1
1
1
1
1
1
1
1
1
1
1
1
1
1
1
1
1
1
1
1
1
1
1
1
1
1
1
1
1
1
1
1
1
1
1
1
1
1
1
1
1
1
1
1
1
1
1
1
1
1
1
1
1
1
1
1
1
1
1
1
1
1
1
1
1
1
1
1
1
1
1
1
1
1
1
1
1
1
1
1
1
1
1
1
1
1
1
1
1
1
1
1
1
1
1
1
1
1
1
1
1
1
1
1
1
1
1
1
1
1
1
1
1
1
1
1
1
1
1
1
1
1
1
1
1
1
1
1
1
1
1
1
1
1
1
1
1
1
1
1
1
1
1
1
1
1
1
1
1
1
1
1
1
1
1
1
1
1
1
1
1
1
1
1
1
1
1
1
1
1
1
1
1
1
1
1
1
1
1
1
1
1
1
1
1
1
1
1
1
1
1
1
1
1
1
1
1
1
1
1
1
1
1
1
1
1
1
1
1
1
1
1
1
1
1
1
1
1
1
1
1
1
1
1
1
1
1
1
1
1
1
1
1
1
1
1
1
1
1
1
1
1
1
1
1
1
1
1
1
1
1
1
1
1
1
1
1
1
1
1
1
1
1
1
1
1
1
1
1
1
1
1
1
1
1
1
1
1
1
1
1
1
1
1
1
1
1
1
1
1
1
1
1
1
1
1
1
1
1
1
1
1
1
1
1
1
1
1
1
1
1
1
1
1
1
1
1
1
1
1
1
1
1
1
1
1
1
1
1
1
1
1
1
1
1
1
1
1
1
1
1
1
1
1
1
1
1
1
1
1
1
1
1
1
1
1
1
1
1
1
1
1
1
1
1
1
1
1
1
1
1
1
1
1
1
1
1
1
1
1
1
1
1
1
1
1
1
1
1
1
1
1
1
1
1
1
1
1
1
1
1
1
1
1
1
1
1
1
1
1
1
1
1
1
1
1
1
1
1
1
1
1
1
1
1
1
1
1
1
1
1
1
1
1
1
1
1
1
1
1
1
1
1
1
1
1
1
1
1
1
1
1
1
1
1
1
1
1
1
1
1
1
1
1
1
1
1
1
1
1
1
1
1
1
1
1
1
1
1
1
1
1
1
1
1
1
1
1
1
1
1
1
1
1
1
1
1
1
1
1
1
1
1
1
1
1
1
1
1
1
1
1
1
1
1
1
1
1
1
1
1
1
1
1
1
1
1
1
1
1
1
1
1
1
1
1
1
1
1
1
1
1
1
1
1
1
1
1
1
1
1
1
1
1
1
1
1
1
1
1
1
1
1
1
1
1
1
1
1
1
1
1
1
1
1
1
1
1
1
1
1
1
1
1
1
1
1
1
1
1
1
1
1
1
1
1
1
1
1
1
1
1
1
1
1
1
1
1
1
1
1
1
1
1
1
1
1
1
1
1
1
1
1
1
1
1
1
1
1
1
1
1
1
1
1
1
1
1
1
1
1
1
1
1
1
1
1
1
1
1
1
1
1
1
1
1
1
1
1
1
1
1
1
1
1
1
1
1
1
1
1
1
1
1
1
1
1
1
1
1
1
1
1
1
1
1
1
1
1
1
1
1
1
1
1
1
1
1
1
1
1
1
1
1
1
1
1
1
1
1
1
1
1
1
1
1
1
1
1
1
1
1
1
1
1
1
1
1
1
1
1
1
1
1
1
1
1
1
1
1
1
1
1
1
1
1
1
1
1
1
1
1
1
1
1
1
1
1
1
1
1
1
1
1
1
1
1
1
1
1
1
1
1
1
1
1
1
1
1
1
1
1
1
1
1
1
1
1
1
1
1
1
1
1
1
1
1
1
1
1
1
1
1
1
1
1
1
1
1
1
1
1
1
1
1
1
1
1
1
1
1
1
1
1
1
1
1
1
1
1
1
1
1
1
1
1
1
1
1
1
1
1
1
1
1
1
1
1
1
1
1
1
1
1
1
1
1
1
1
1
1
1
1
1
1
1
1
1
1
1
1
1
1
1
1
1
1
1
1
1
1
1
1
1
1
1
1
1
1
1
1
1
1
1
1
1
1
1
1
1
1
1
1
1
1
1
1
1
1
1
1
1
1
1
1
1
1
1
1
1
1
1
1
1
1
1
1
1
1
1
1
1
1
1
1
1
1
1
1
1
1
1
1
1
1
1
1
1
1
1
1
1
1
1
1
1
1
1
1
1
1
1
1
1
1
1
1
1
1
1
1
1
1
1
1
1
1
1
1
1
1
1
1
1
1
1
1
1
1
1
1
1
1
1
1
1
1
1
1
1
1
1
1
1
1
1
1
1
1
1
1
1
1
1
1
1
1
1
1
1
1
1
1
1
1
1
1
1
1
1
1
1
1
1
1
1
1
1
1
1
1
1
1
1
1
1
1
1
1
1
1
1
1
1
1
1
1
1
1
1
1
1
1
1
1
1
1
1
1
1
1
1
1
1
1
1
1
1
1
1
1
1
1
1
1
1
1
1
1
1
1
1
1
1
1
1
1
1
1
1
1
1
1
1
1
1
1
1
1
1
1
1
1
1
1
1
1
1
1
1
1
1
1
1
1
1
1
1
1
1
1
1
1
1
1
1
1
1
1
1
1
1
1
1
1
1
1
1
1
1
1
1
1
1
1
1
1
1
1
1
1
1
1
1
1
1
1
1
1
1
1
1
1
1
1
1
1
1
1
1
1
1
1
1
1
1
1
1
1
1
1
1
1
1
1
1
1
1
1
1
1
1
1
1
1
1
1
1
1
1
1
1
1
1
1
1
1
1
1
1
1
1
1
1
1
1
1
1
1
1
1
1
1
1
1
1
1
1
1
1
1
1
1
1
1
1
1
1
1
1
1
1
1
1
1
1
1
1
1
1
1
1
1
1
1
1
1
1
1
1
1
1
1
1
1
1
1
1
1
1
1
1
1
1
1
1
1
1
1
1
1
1
1
1
1
1
1
1
1
1
1
1
1
1
1
1
1
1
1
1
1
1
1
1
1
1
1
1
1
1
1
1
1
1
1
1
1
1
1
1
1
1
1
1
1
1
1
1
1
1
1
1
1
1
1
1
1
1
1
1
1
1
1
1
1
1
1
1
1
1
1
1
1
1
1
1
1
1
1
1
1
1
1
1
1
1
1
1
1
1
1
1
1
1
1
1
1
1
1
1
1
1
1
1
1
1
1
1
1
1
1
1
1
1
1
1
1
1
1
1
1
1
1
1
1
1
1
1
1
1
1
1
1
1
1
1
1
1
1
1
1
1
1
1
1
1
1
1
1
1
1
1
1
1
1
1
1
1
1
1
1
1
1
1
1
1
1
1
1
1
1
1
1
1
1
1
1
1
1
1
1
1
1
1
1
1
1
1
1
1
1
1
1
1
1
1
1
1
1
1
1
1
1
1
1
1
1
1
1
1
1
1
1
1
1
1
1
1
1
1
1
1
1
1
1
1
1
1
1
1
1
1
1
1
1
1
1
1
1
1
1
1
1
1
1
1
1
1
1
1
1
1
1
1
1
1
1
1
1
1
1
1
1
1
1
1
1
1
1
1
1
1
1
1
1
1
1
1
1
1
1
1
1
1
1
1
1
1
1
1
1
1
1
1
1
1
1
1
1
1
1
1
1
1
1
1
1
1
1
1
1
1
1
1
1
1
1
1
1
1
1
1
1
1
1
1
1
1
1
1
1
1
1
1
1
1
1
1
1
1
1
1
1
1
1
1
1
1
1
1
1
1
1
1
1
1
1
1
1
1
1
1
1
1
1
1
1
1
1
1
1
1
1
1
1
1
1
1
1
1
1
1
1
1
1
1
1
1
1
1
1
1
1
1
1
1
1
1
1
1
1
1
1
1
1
1
1
1
1
1
1
1
1
1
1
1
1
1
1
1
1
1
1
1
1
1
1
1
1
1
1
1
1
1
1
1
1
1
1
1
1
1
1
1
1
1
1
1
1
1
1
1
1
1
1
1
1
1
1
1
1
1
1
1
1
1
1
1
1
1
1
1
1
1
1
1
1
1
1
1
1
1
1
1
1
1
1
1
1
1
1
1
1
1
1
1
1
1
1
1
1
1
1
1
1
1
1
1
1
1
1
1
1
1
1
1
1
1
1
1
1
1
1
1
1
1
1
1
1
1
1
1
1
1
1
1
1
1
1
1
1
1
1
1
1
1
1
1
1
1
1
1
1
1
1
1
1
1
1
1
1
1
1
1
1
1
1
1
1
1
1
1
1
1
1
1
1
1
1
1
1
1
1
1
1
1
1
1
1
1
1
1
1
1
1
1
1
1
1
1
1
1
1
1
1
1
1
1
1
1
1
1
1
1
1
1
1
1
1
1
1
1
1
1
1
1
1
1
1
1
1
1
1
1
1
1
1
1
1
1
1
1
1
1
1
1
1
1
1
1
1
1
1
1
1
1
1
1
1
1
1
1
1
1
1
1
1
1
1
1
1
1
1
1
1
1
1
1
1
1
1
1
1
1
1
1
1
1
1
1
1
1
1
1
1
1
1
1
1
1
1
1
1
1
1
1
1
1
1
1
1
1
1
1
1
1
1
1
1
1
1
1
1
1
1
1
1
1
1
1
1
1
1
1
1
1
1
1
1
1
1
1
1
1
1
1
1
1
1
1
1
1
1
1
1
1
1
1
1
1
1
1
1
1
1
1
1
1
1
1
1
1
1
1
1
1
1
1
1
1
1
1
1
1
1
1
1
1
1
1
1
1
1
1
1
1
1
1
1
1
1
1
1
1
1
1
1
1
1
1
1
1
1
1
1
1
1
1
1
1
1
1
1
1
1
1
1
1
1
1
1
1
1
1
1
1
1
1
1
1
1
1
1
1
1
1
1
1
1
1
1
1
1
1
1
1
1
1
1
1
1
1
1
1
1
1
1
1
1
1
1
1
1
1
1
1
1
1
1
1
1
1
1
1
1
1
1
1
1
1
1
1
1
1
1
1
1
1
1
1
1
1
1
1
1
1
1
1
1
1
1
1
1
1
1
1
1
1
1
1
1
1
1
1
1
1
1
1
1
1
1
1
1
1
1
1
1
1
1
1
1
1
1
1
1
1
1
1
1
1
1
1
1
1
1
1
1
1
1
1
1
1
1
1
1
1
1
1
1
1
1
1
1
1
1
1
1
1
1
1
1
1
1
1
1
1
1
1
1
1
1
1
1
1
1
1
1
1
1
1
1
1
1
1
1
1
1
1
1
1
1
1
1
1
1
1
1
1
1
1
1
1
1
1
1
1
1
1
1
1
1
1
1
1
1
1
1
1
1
1
1
1
1

SCALARS density double 1
LOOKUP_TABLE default
0.996899
0.996935
0.997
0.996996
0.997007
0.996999
0.997022
0.997046
0.997064
0.99712
0.997182
0.997224
0.997334
0.997463
0.997586
0.997743
0.997984
0.998233
0.998447
0.99875
0.999068
0.999313
0.999527
0.999806
1.00001
1.00017
1.00038
1.00065
1.00085
1.00108
1.00139
1.00168
1.00187
1.00212
1.00235
1.00249
1.00261
1.00274
1.00284
1.00286
1.00293
1.00298
1.00298
1.00301
1.00303
1.00303
1.00303
1.00304
1.00311
1.00315
0.996973
0.996967
0.997048
0.997061
0.997086
0.997082
0.997113
0.997141
0.997119
0.997166
0.997236
0.997256
0.997315
0.99746
0.997591
0.997746
0.997993
0.99826
0.998513
0.998803
0.999116
0.999359
0.999578
0.99981
1
1.00016
1.00035
1.00058
1.0008
1.00104
1.00134
1.00161
1.00185
1.0021
1.00233
1.00247
1.00259
1.00272
1.00277
1.00279
1.00286
1.0029
1.00288
1.0029
1.00294
1.00293
1.00296
1.00298
1.00306
1.00306
0.997037
0.997106
0.997113
0.997129
0.997169
0.997195
0.997195
0.99721
0.997255
0.997245
0.99727
0.997352
0.997411
0.997496
0.997661
0.997886
0.998068
0.998325
0.998649
0.998909
0.999122
0.999398
0.999653
0.999778
0.99995
1.00018
1.00035
1.00048
1.00074
1.00101
1.00122
1.00147
1.00178
1.00201
1.00217
1.00238
1.00253
1.0026
1.00265
1.00274
1.00276
1.00275
1.00281
1.00282
1.00281
1.00285
1.0029
1.00291
1.00291
1.00299
0.997132
0.997188
0.99717
0.997215
0.997215
0.997264
0.997257
0.997266
0.997348
0.99736
0.997402
0.997492
0.997628
0.997733
0.997914
0.998136
0.998349
0.998564
0.998792
0.99901
0.999185
0.999384
0.999561
0.999757
0.999939
1.00015
1.00033
1.00053
1.00071
1.00091
1.00108
1.0013
1.00151
1.00171
1.00191
1.00212
1.00229
1.00239
1.00252
1.00261
1.00266
1.00267
1.00276
1.00276
1.00277
1.00281
1.00281
1.00285
1.00283
1.00288
0.997289
0.997265
0.997233
0.997293
0.997262
0.99727
0.997327
0.997364
0.997376
0.997491
0.997614
0.997722
0.997891
0.99815
0.998336
0.998519
0.998757
0.998934
0.999006
0.999115
0.999278
0.999342
0.99946
0.999701
0.999946
1.0001
1.00035
1.00058
1.0007
1.00076
1.00093
1.00104
1.00112
1.0013
1.00154
1.00171
1.0019
1.00216
1.00232
1.00242
1.00255
1.00266
1.00266
1.0027
1.00276
1.00277
1.00272
1.0028
1.00276
1.00272
0.997415
0.997398
0.997362
0.997408
0.997372
0.997394
0.997429
0.997492
0.997549
0.997656
0.997859
0.998046
0.998283
0.998541
0.99881
0.999011
0.99915
0.999257
0.999293
0.999291
0.999288
0.999358
0.999475
0.999644
0.999866
1.00014
1.00036
1.00052
1.00063
1.0007
1.0007
1.00072
1.00078
1.00091
1.00106
1.00128
1.00155
1.00179
1.00202
1.0022
1.00239
1.00248
1.00254
1.0026
1.00262
1.00265
1.00261
1.00266
1.00261
1.0026
0.997571
0.997611
0.997577
0.997558
0.997585
0.997647
0.997608
0.997703
0.997844
0.997973
0.998138
0.998435
0.998718
0.998925
0.999192
0.999404
0.999468
0.999468
0.999511
0.999471
0.999393
0.999456
0.999585
0.999679
0.999845
1.00012
1.00028
1.00036
1.00049
1.00056
1.0005
1.00049
1.00056
1.00059
1.00068
1.00091
1.00118
1.00138
1.00165
1.00193
1.00208
1.00219
1.00233
1.00242
1.00237
1.00244
1.00247
1.00245
1.0024
1.00245
0.997774
0.997787
0.997767
0.997795
0.997795
0.997859
0.997904
0.997994
0.998158
0.998351
0.998581
0.998816
0.999089
0.999324
0.999459
0.999559
0.99962
0.999618
0.999562
0.999576
0.999625
0.999643
0.999705
0.999826
0.999941
0.999981
1.0001
1.00022
1.00029
1.00032
1.00039
1.00043
1.0004
1.00043
1.00052
1.00063
1.00078
1.00102
1.00128
1.00149
1.00171
1.0019
1.00204
1.00213
1.00219
1.00225
1.00223
1.00227
1.00225
1.00225
0.997978
0.997932
0.997945
0.998023
0.997978
0.998041
0.998184
0.998349
0.998473
0.99874
0.999045
0.999223
0.999421
0.999597
0.999659
0.999601
0.999621
0.99963
0.999592
0.999652
0.999792
0.999874
0.999893
0.999978
0.999979
0.999923
0.999934
1.00003
1.00007
1.00017
1.00032
1.00039
1.00037
1.0004
1.00044
1.00041
1.00049
1.00068
1.00088
1.00105
1.00134
1.0016
1.00171
1.00187
1.00201
1.00207
1.00202
1.0021
1.00211
1.00206
0.998089
0.998118
0.998088
0.99813
0.99818
0.998276
0.998402
0.998616
0.998866
0.999103
0.999354
0.9996
0.999707
0.999723
0.999717
0.999679
0.99956
0.999548
0.999665
0.999757
0.999848
1
1.00011
1.00003
0.999963
0.999946
0.999887
0.99983
0.999961
1.00013
1.00022
1.00032
1.00044
1.00043
1.00032
1.00032
1.00035
1.00038
1.00051
1.00077
1.001
1.00121
1.00146
1.00166
1.00176
1.00186
1.00192
1.00196
1.00192
1.00197
0.998194
0.998256
0.998217
0.998237
0.998335
0.998526
0.99862
0.998855
0.999169
0.999408
0.999588
0.99976
0.999855
0.999758
0.999685
0.999647
0.999582
0.999577
0.999692
0.999841
0.999921
1.00003
1.00009
1.00005
0.999985
0.999951
0.999895
0.999869
0.999953
1.00006
1.00015
1.00028
1.00039
1.00038
1.00033
1.00031
1.00027
1.00022
1.00035
1.00053
1.00071
1.00094
1.00123
1.00144
1.00153
1.00171
1.0018
1.00183
1.00179
1.00186
0.998292
0.998261
0.998291
0.998408
0.998461
0.998633
0.998888
0.99913
0.999339
0.99962
0.999781
0.999782
0.999766
0.999758
0.999641
0.999542
0.99965
0.999728
0.999753
0.999856
1.00001
0.99998
0.999931
1.00001
1.00003
0.999952
0.999968
1.00005
1
0.999978
1.00013
1.00022
1.00023
1.00031
1.00042
1.00032
1.00023
1.00027
1.00029
1.00031
1.00049
1.00078
1.00096
1.00119
1.00144
1.00159
1.00162
1.00175
1.00179
1.00175
0.998317
0.998271
0.998324
0.998517
0.998583
0.998797
0.999089
0.999387
0.999563
0.999723
0.999848
0.999773
0.999661
0.999601
0.999583
0.99958
0.999653
0.999813
0.999887
0.999916
0.999916
0.9999
0.999877
0.999902
0.99998
1.00004
1.00011
1.00012
1.00009
1.00007
1.00006
1.00009
1.00016
1.00031
1.00037
1.00036
1.00036
1.00031
1.00024
1.00022
1.00037
1.00053
1.00072
1.001
1.00127
1.00147
1.00153
1.00171
1.00175
1.00172
0.998265
0.998388
0.998416
0.998532
0.998778
0.999089
0.999271
0.999566
0.999803
0.999836
0.99975
0.999729
0.999624
0.999449
0.999513
0.999656
0.999722
0.999789
0.999958
0.999946
0.999805
0.999825
0.999878
0.999845
0.999913
1.00013
1.00019
1.00013
1.00017
1.00017
1.00003
1.00002
1.0002
1.00025
1.0003
1.00042
1.00048
1.00031
1.00024
1.00028
1.00023
1.00029
1.00055
1.00083
1.00099
1.00128
1.00152
1.00161
1.00162
1.00176
0.998276
0.998415
0.998493
0.998677
0.998931
0.99928
0.9995
0.999678
0.999834
0.999827
0.999699
0.99956
0.999525
0.999503
0.999513
0.999654
0.999797
0.999852
0.999839
0.999852
0.999843
0.999791
0.999813
0.999901
1
1.00005
1.00014
1.00021
1.0002
1.00014
1.00013
1.00015
1.00013
1.00018
1.00032
1.00042
1.00041
1.0004
1.00038
1.00027
1.00021
1.00026
1.00043
1.00061
1.00084
1.00115
1.00136
1.00154
1.00161
1.00172
0.998361
0.99835
0.998551
0.998894
0.999071
0.999329
0.999652
0.999793
0.999689
0.999687
0.999639
0.999447
0.999416
0.999565
0.999658
0.999664
0.999808
0.999872
0.999742
0.99973
0.999831
0.999827
0.999817
0.999974
1.00005
0.99999
1.00006
1.0002
1.00018
1.00016
1.00025
1.00024
1.00011
1.00017
1.00031
1.0003
1.00037
1.0005
1.00047
1.0003
1.0003
1.00035
1.00029
1.00045
1.00079
1.00102
1.00117
1.00149
1.00168
1.00164
0.998358
0.998491
0.998681
0.998997
0.999279
0.999534
0.9997
0.999786
0.999718
0.999549
0.999461
0.999466
0.999469
0.999555
0.999736
0.999829
0.999765
0.999726
0.999769
0.999717
0.999718
0.999859
0.999987
0.999966
0.999957
1.00006
1.00006
1.00003
1.00016
1.00029
1.00027
1.00021
1.00026
1.00022
1.00016
1.00026
1.00042
1.00046
1.00045
1.00046
1.00038
1.00024
1.00026
1.00038
1.00055
1.00082
1.0011
1.00136
1.00152
1.00166
0.998411
0.998732
0.9989
0.999083
0.999477
0.999788
0.999711
0.999681
0.99968
0.999481
0.999291
0.999396
0.999575
0.999565
0.999689
0.999834
0.999748
0.999644
0.999702
0.999766
0.999737
0.999869
1.00002
0.999978
0.999961
1.00003
1.00003
1
1.00015
1.00028
1.00024
1.00029
1.00034
1.00024
1.00017
1.00032
1.00043
1.00039
1.00054
1.00061
1.00042
1.00026
1.00031
1.00033
1.00031
1.00063
1.00101
1.00117
1.00132
1.00161
0.998693
0.998827
0.999078
0.999412
0.999605
0.999731
0.999768
0.999621
0.999419
0.999369
0.999356
0.999358
0.999515
0.999711
0.999702
0.999633
0.999727
0.999714
0.999643
0.999736
0.999929
0.999915
0.999871
1.00002
1.00004
0.999933
0.999963
1.00014
1.00011
1.0001
1.00028
1.00036
1.00027
1.00026
1.00037
1.0003
1.00029
1.00048
1.00059
1.00054
1.00053
1.0005
1.00032
1.00024
1.00037
1.00051
1.00069
1.00103
1.00128
1.00135
0.998975
0.998964
0.999271
0.999677
0.999685
0.999638
0.999681
0.999575
0.999273
0.999259
0.999481
0.999512
0.99955
0.999707
0.999744
0.999604
0.999585
0.999724
0.99973
0.99979
0.99991
0.999947
0.999911
0.999931
1
0.999971
1.00004
1.00008
1.00007
1.00012
1.00024
1.00029
1.00029
1.00041
1.00037
1.00025
1.00031
1.00044
1.00046
1.00047
1.00065
1.0006
1.00035
1.0003
1.00039
1.00041
1.00047
1.00085
1.00114
1.00113
0.99912
0.999388
0.999551
0.999603
0.999763
0.999749
0.999468
0.999337
0.99938
0.999332
0.999379
0.999652
0.999726
0.999569
0.999602
0.999654
0.999552
0.999558
0.999838
0.9999
0.999789
0.999901
1.00001
0.999883
0.999864
1.0001
1.0001
0.999979
1.00009
1.00023
1.00013
1.00019
1.00046
1.00045
1.00032
1.00039
1.00044
1.00028
1.00036
1.00063
1.0006
1.0005
1.00058
1.00047
1.00022
1.0003
1.00055
1.00058
1.00073
1.00103
0.999403
0.999694
0.99972
0.99966
0.999727
0.999699
0.999359
0.99919
0.999326
0.99942
0.999428
0.999563
0.999711
0.999603
0.999473
0.999572
0.999646
0.999672
0.999756
0.999889
0.999907
0.999856
0.999883
0.999943
0.999979
1.00001
1.00005
1.0001
1.00012
1.00009
1.00013
1.00027
1.00035
1.00037
1.00043
1.00051
1.00038
1.00032
1.00048
1.00058
1.00057
1.00062
1.00069
1.00052
1.00027
1.0003
1.00041
1.00043
1.0005
1.00075
0.99989
0.999674
0.999777
0.999954
0.999636
0.999322
0.999364
0.999307
0.999124
0.999378
0.999657
0.999539
0.99947
0.999642
0.99961
0.999455
0.999684
0.999891
0.999755
0.99976
0.999954
0.999883
0.999768
0.999963
1.00009
0.999928
1.00002
1.00021
1.0001
1.00002
1.00023
1.00027
1.00014
1.00035
1.00056
1.00038
1.00034
1.00054
1.00048
1.00036
1.00064
1.00084
1.00058
1.0005
1.00061
1.00033
1.00008
1.00035
1.00053
1.00029
1.0001
0.999956
0.999965
0.999899
0.999575
0.999267
0.99922
0.999287
0.999296
0.99938
0.999595
0.999617
0.99946
0.999455
0.999609
0.99964
0.999635
0.999774
0.999883
0.999771
0.999727
0.999857
0.999932
0.999903
0.999921
1.00009
1.0001
1.00005
1.0001
1.00024
1.00021
1.00012
1.00026
1.00041
1.00039
1.00041
1.00055
1.00052
1.00038
1.00046
1.00064
1.00067
1.00067
1.00069
1.00058
1.00035
1.00017
1.00012
1.00019
1.00016
1.00015
1.00046
1.00013
0.999509
0.99946
0.999444
0.99903
0.99908
0.999537
0.999564
0.999329
0.999511
0.999608
0.999342
0.999415
0.999765
0.999743
0.999634
0.999801
0.999896
0.999697
0.999792
1.00001
0.999914
0.999923
1.00007
1.0001
0.999979
1.00017
1.00027
1.00009
1.00018
1.00038
1.0003
1.00027
1.0006
1.00066
1.00037
1.00049
1.00069
1.00047
1.00048
1.0009
1.00088
1.00044
1.00044
1.00048
0.999953
0.999708
1.00008
1.00065
1.00044
1.00007
0.999678
0.999352
0.999177
0.999201
0.999256
0.999402
0.999566
0.9995
0.999328
0.999417
0.999559
0.999507
0.99956
0.999832
0.999807
0.999659
0.99974
0.99995
0.999858
0.999786
1.00003
1.00007
0.999928
0.999951
1.00021
1.00014
1.00003
1.00023
1.00032
1.00018
1.00018
1.00048
1.00052
1.00044
1.0006
1.00067
1.00048
1.00048
1.00067
1.00072
1.00072
1.00077
1.00054
1.00021
0.999993
0.999776
0.999528
1.00104
1.00028
1.00002
0.999952
0.999278
0.998884
0.999347
0.999563
0.999224
0.999333
0.999629
0.999361
0.999181
0.999571
0.999759
0.999541
0.999613
0.999867
0.999683
0.999626
0.999854
0.99993
0.999825
0.999926
1.00005
0.999929
1.00005
1.00017
1.00009
1.00014
1.00035
1.00029
1.0001
1.00036
1.00048
1.00028
1.00046
1.00083
1.00064
1.00038
1.00069
1.00081
1.00047
1.00065
1.00102
1.00061
1
0.999994
0.999845
0.999195
1.00086
1.0007
1.00021
0.999494
0.999314
0.999309
0.999174
0.999309
0.999522
0.999338
0.999188
0.999431
0.999489
0.999394
0.999624
0.999827
0.999606
0.999507
0.999807
0.999792
0.99965
0.99985
1.00006
0.99989
0.999826
1.00012
1.00011
0.999947
1.00014
1.00036
1.00021
1.00015
1.00044
1.00037
1.00017
1.00042
1.00066
1.00052
1.00057
1.00084
1.00065
1.00047
1.00077
1.00086
1.00059
1.00059
1.0005
0.999765
0.999348
0.999395
1.00089
1.00106
1.00026
0.999325
0.999397
0.999607
0.999197
0.999131
0.999565
0.999462
0.999033
0.999279
0.999712
0.99951
0.999422
0.999755
0.999776
0.999526
0.999612
0.999878
0.999801
0.99978
0.999928
0.999968
0.999964
0.999998
1.00002
1.00007
1.00022
1.00021
1.00011
1.00034
1.00043
1.00019
1.00023
1.0006
1.00054
1.00035
1.00074
1.00094
1.00054
1.00048
1.00089
1.00081
1.00044
1.00055
1.00056
0.99974
0.999074
0.999228
1.00145
1.00049
1.00005
1.00003
0.99942
0.999081
0.999509
0.999517
0.999029
0.999197
0.9995
0.999253
0.999237
0.999713
0.999664
0.999368
0.999624
0.999838
0.999579
0.999608
0.999959
0.99986
0.999679
0.999963
1.00013
0.999872
0.999984
1.0003
1.00016
1.00002
1.00035
1.00041
1.00014
1.00032
1.00062
1.00035
1.0003
1.00081
1.00078
1.00047
1.00081
1.00102
1.00048
1.00052
1.00102
1.00057
0.999865
0.999958
0.999634
0.998622
1.00127
1.00044
1.00021
1.00012
0.999527
0.999151
0.999487
0.999556
0.999062
0.999018
0.999475
0.999491
0.999248
0.999479
0.999768
0.999533
0.999446
0.99974
0.999846
0.999658
0.999695
0.999878
0.999869
0.999836
0.999912
1.00008
1.00014
1.00011
1.00009
1.00026
1.00032
1.00016
1.00024
1.00052
1.00044
1.00023
1.00052
1.00076
1.00054
1.00058
1.00097
1.0009
1.00052
1.00061
1.00083
1.00049
0.99998
0.999749
0.999502
0.998865
1.00058
1.00118
1.0005
0.999374
0.99968
1.00001
0.999126
0.998906
0.999543
0.999317
0.998852
0.999442
0.999803
0.999289
0.999288
0.999808
0.999619
0.999375
0.999772
0.999952
0.999594
0.999705
1.00002
0.999827
0.99982
1.00016
1.00017
0.999939
1.00022
1.00038
1.00005
1.0002
1.00062
1.00039
1.00015
1.00066
1.00072
1.00021
1.00058
1.00121
1.0007
1.00044
1.00115
1.00094
1.00003
1.00039
1.00071
0.999493
0.998782
0.999452
1.00098
1.0009
1.00032
0.999852
0.999825
0.999728
0.999339
0.99903
0.999162
0.999337
0.999175
0.999216
0.999572
0.999593
0.999311
0.999419
0.9997
0.999599
0.999553
0.999766
0.999911
0.999751
0.999732
0.999964
1.00003
0.999979
0.999989
1.00021
1.00021
1.00005
1.00019
1.00044
1.00041
1.00028
1.00052
1.00064
1.00038
1.00045
1.00082
1.00083
1.00071
1.00091
1.00093
1.00065
1.00047
1.00029
1.00009
0.999754
0.999208
0.998868
1.00135
0.999924
1.0001
1.00093
0.99981
0.998897
0.999656
0.999666
0.998588
0.998904
0.999845
0.999373
0.998944
0.999638
0.999817
0.999196
0.999359
0.999914
0.999646
0.999501
0.999861
0.999948
0.999706
0.999854
1.00008
0.999919
1.00007
1.00024
1.00004
1.00008
1.00046
1.00038
1.00008
1.00057
1.00078
1.00016
1.0003
1.00105
1.00069
1.00019
1.00112
1.00144
1.00035
1.00039
1.0012
1.0003
0.999192
0.999946
1.00003
0.998566
1.00038
1.00061
1.00064
1.00011
0.99993
0.999709
0.999188
0.999119
0.999254
0.999096
0.99913
0.99952
0.99941
0.999213
0.999479
0.999655
0.999385
0.999415
0.999801
0.999719
0.999574
0.999812
1.00001
0.999808
0.999777
1.00017
1.00016
0.999945
1.00011
1.00038
1.00028
1.00017
1.00053
1.00059
1.00032
1.00047
1.00076
1.00058
1.00049
1.00094
1.00093
1.0007
1.00097
1.00093
1.00025
1.0002
1.00021
0.999363
0.999184
0.999615
0.999904
1.00147
1.00075
0.999362
1.00006
1.00045
0.998892
0.99846
0.999689
0.999553
0.998596
0.999209
0.999938
0.999221
0.99899
0.999723
0.999769
0.999261
0.999523
0.999938
0.999665
0.999674
0.999979
0.999928
0.999888
1.00004
1.00005
0.999969
1.00025
1.00031
1.00004
1.0004
1.0007
1.00024
1.00021
1.00093
1.00078
1.00006
1.00074
1.00142
1.00051
1.00034
1.00154
1.00114
0.999702
1.00011
1.00071
0.999351
0.998587
0.999879
1.00114
1.00005
1.00014
1.00092
0.999967
0.999049
0.999548
0.999424
0.998663
0.99912
0.999652
0.999134
0.999
0.999647
0.999508
0.999149
0.999507
0.99979
0.999478
0.999475
0.999912
0.999833
0.999678
0.999982
1.00009
0.999852
0.999923
1.00027
1.00016
1.00002
1.00044
1.0005
1.00019
1.00042
1.00081
1.00048
1.00029
1.00095
1.00088
1.00033
1.00091
1.00145
1.00055
1.00043
1.0012
1.00021
0.999077
1.00003
1.00006
0.998557
1.00084
0.999451
1.00032
1.00135
0.999867
0.998663
0.99962
0.999792
0.998535
0.998699
0.999811
0.999423
0.998716
0.999359
0.999809
0.999184
0.999191
0.999767
0.999703
0.999426
0.99964
0.999889
0.999807
0.999861
0.99998
0.999931
1.00006
1.00016
1.00007
1.00026
1.00051
1.00028
1.00016
1.00073
1.00081
1.00017
1.00052
1.00123
1.00062
1.0002
1.00127
1.00149
1.00031
1.00048
1.00132
1.00025
0.999027
0.999746
1.00034
0.999138
0.999162
1.00153
1.00107
0.999107
1.00001
1.00064
0.998666
0.998379
0.999853
0.999375
0.998388
0.99931
0.999875
0.99897
0.998929
0.999809
0.999601
0.999166
0.999646
0.999908
0.99953
0.999611
1.00005
0.999929
0.999794
1.00008
1.00004
0.999905
1.00028
1.00041
1.00006
1.00024
1.00076
1.00041
1.00013
1.00094
1.001
1.00011
1.0006
1.00162
1.00068
1.0001
1.00168
1.00148
0.999354
1.00015
1.00123
0.998987
0.998355
1.00083
1.00012
1.00123
1.00042
0.999527
1.00007
1.00017
0.998964
0.998517
0.999411
0.9995
0.998666
0.998979
0.999646
0.999296
0.99893
0.999404
0.999698
0.999351
0.999409
0.999769
0.999725
0.999618
0.999792
0.999971
0.999983
0.999925
0.999948
1.00011
1.00029
1.00022
1.00015
1.00049
1.00061
1.00027
1.00049
1.00098
1.0007
1.0003
1.00092
1.00132
1.00055
1.00061
1.00145
1.00104
1.00011
1.00016
1.00037
0.999786
0.999106
0.999584
1.00179
0.998507
0.999654
1.00224
0.99968
0.99776
0.999999
1.00021
0.997905
0.998523
1.00024
0.999143
0.998294
0.999541
0.999839
0.998877
0.999134
0.999931
0.999549
0.999254
0.999799
0.999903
0.999631
0.999877
1.00007
0.999851
0.999985
1.00027
1.00005
1.00008
1.00063
1.00042
0.99999
1.00072
1.00108
1.00014
1.0003
1.00159
1.00089
0.999709
1.00136
1.00215
0.999848
0.999994
1.00242
1.00049
0.997895
1.00058
1.00149
0.998052
0.999546
0.999948
1.00071
1.00024
0.999659
0.999265
0.999175
0.99922
0.998986
0.998831
0.999094
0.999321
0.999013
0.99907
0.999368
0.99938
0.999309
0.999441
0.999614
0.999575
0.999604
0.999787
0.999869
0.999836
0.999881
1.00001
1.00007
1.00005
1.00011
1.00029
1.00035
1.0003
1.00043
1.00061
1.00058
1.00053
1.0008
1.00092
1.00063
1.00082
1.00111
1.001
1.00085
1.00096
1.00069
1.00042
1.00033
0.999369
0.999768
1.00074
0.998277
1.00299
1.00097
0.997287
0.999924
1.00161
0.998041
0.997464
1.00033
0.999703
0.997718
0.998952
1.0002
0.998856
0.998465
0.999743
0.999735
0.998957
0.999372
0.999919
0.999572
0.999521
0.999941
0.99988
0.999783
1.00008
1.00004
0.999926
1.00031
1.00036
1
1.00044
1.00093
1.00025
1.0001
1.00136
1.00114
0.999728
1.00081
1.00221
1.00038
0.999559
1.00242
1.00208
0.998519
1.00025
1.00284
0.999063
0.997387
1.00182
1.00183
0.999241
0.999199
1.00101
0.999645
0.998401
0.999461
0.999392
0.99836
0.998853
0.9995
0.99903
0.998713
0.999313
0.999388
0.999059
0.999301
0.999596
0.999461
0.999434
0.999736
0.999821
0.999715
0.999826
0.999955
0.999945
1.00004
1.00015
1.00008
1.00016
1.00043
1.00042
1.0003
1.00056
1.00082
1.00053
1.00057
1.00111
1.00085
1.00044
1.00104
1.00157
1.00059
1.00052
1.00177
1.0006
0.998853
1.00111
1.0013
0.997869
1.00174
0.996684
0.999397
1.00298
0.99889
0.9966
1.00009
1.00043
0.997384
0.998139
1.00036
0.999135
0.997968
0.999318
0.999838
0.998802
0.99895
0.999828
0.999535
0.999193
0.999726
0.999927
0.999629
0.999768
0.999992
0.999891
1.00005
1.00024
0.999985
1.0001
1.00065
1.00039
1.00001
1.00083
1.00114
1.0001
1.00041
1.00182
1.00085
0.999494
1.00162
1.00257
0.999579
0.999767
1.00338
1.00122
0.997378
1.00106
1.00291
0.998422
0.996506
1.00265
1.00129
0.996628
0.999477
1.00124
0.998007
0.997407
0.999929
0.999561
0.997952
0.998922
0.999816
0.998874
0.998598
0.999536
0.999615
0.999045
0.999371
0.999796
0.999616
0.999587
0.999865
0.999859
0.999824
1.00002
1.00003
0.999997
1.00025
1.00028
1.00008
1.00043
1.0008
1.0003
1.0003
1.00118
1.00099
1.00005
1.00084
1.00188
1.0004
0.999914
1.00234
1.00192
0.998812
1.0006
1.00366
0.998725
0.99745
1.00425
0.999412
1.0036
0.999448
0.996087
0.999775
1.00095
0.997538
0.997421
0.999947
0.999352
0.99789
0.998965
0.999768
0.99875
0.998569
0.999513
0.999471
0.998989
0.999418
0.999806
0.999553
0.999557
0.999888
0.999801
0.999752
1.00006
1.00008
0.999937
1.00024
1.00036
1.00006
1.00033
1.00086
1.00046
1.00023
1.00114
1.00118
1.00006
1.00069
1.00192
1.0006
0.999747
1.00228
1.00228
0.998893
1.00021
1.00383
1.00011
0.99748
1.00113
1.00368
0.992053
0.997279
1.00466
0.998684
0.995041
0.999807
1.00085
0.997138
0.997827
1.00042
0.999303
0.997807
0.999194
0.99985
0.998726
0.998818
0.999795
0.999621
0.999209
0.999667
0.999922
0.999659
0.999776
0.999967
0.999885
1.00004
1.00021
0.99996
1.00013
1.00062
1.00029
1
1.00091
1.00115
0.999985
1.00044
1.00194
1.00065
0.999314
1.00182
1.00271
0.998969
0.999798
1.00456
1.0009
0.995429
1.00319
1.00635
0.994075
0.995982
0.996269
0.999753
1.00075
0.997517
0.997637
0.999359
0.998834
0.997916
0.99891
0.999508
0.998795
0.998625
0.999272
0.999122
0.998816
0.999178
0.999561
0.999363
0.999422
0.999752
0.999752
0.999591
0.999845
0.999979
0.99985
0.999938
1.00026
1.00014
1.00004
1.00039
1.00054
1.00024
1.00053
1.00103
1.00072
1.00032
1.00113
1.00113
1.00026
1.00063
1.00204
1.00089
1.00008
1.00189
1.00222
0.998493
1.0007
1.00384
1.00283
0.994519
1.00965
1.00032
0.992659
0.999419
1.00229
0.996803
0.996188
1.00069
0.99988
0.997488
0.998897
1.0003
0.998625
0.998138
0.99952
0.99958
0.998845
0.999411
1.00001
0.999566
0.999506
0.999904
0.999807
0.999732
1.0001
1.00003
0.99989
1.00035
1.00037
0.99979
1.00035
1.0011
1.00028
1.00001
1.00163
1.00134
0.999335
1.00062
1.00278
0.999911
0.998712
1.00368
1.0034
0.996338
1.00097
1.00792
0.996567
0.992454
1.01843

VECTORS velocity double
-3.43376e-06 -1.78562e-06 0
-1.52414e-05 -3.78646e-06 0
-2.97343e-05 1.3701e-05 0
-5.02601e-05 2.75904e-06 0
-5.54952e-05 2.10159e-05 0
-8.72666e-05 3.15186e-05 0
-0.000112152 2.43385e-05 0
-0.000116322 3.68477e-05 0
-0.000136279 4.25955e-05 0
-0.000158629 5.73636e-05 0
-0.000182807 4.49042e-05 0
-0.000192616 5.16489e-05 0
-0.000217282 4.41678e-05 0
-0.000251712 3.44388e-05 0
-0.000279394 4.49786e-06 0
-0.000315801 -1.46517e-05 0
-0.000366453 -4.92905e-05 0
-0.000420947 -8.39864e-05 0
-0.000470657 -0.000115617 0
-0.000529088 -0.000134581 0
-0.000582473 -0.000148518 0
-0.000626487 -0.000140365 0
-0.000658749 -0.000115272 0
-0.000684317 -7.46562e-05 0
-0.000695193 -2.54826e-05 0
-0.000692647 3.01191e-05 0
-0.000679285 7.90512e-05 0
-0.000652792 0.000116769 0
-0.000618453 0.00013803 0
-0.000573747 0.000144636 0
-0.000522469 0.000129537 0
-0.000466169 0.000109505 0
-0.00041745 7.92179e-05 0
-0.000365728 4.70666e-05 0
-0.00031686 1.44474e-05 0
-0.000280503 -1.50378e-06 0
-0.000253792 -2.7722e-05 0
-0.00021974 -3.56848e-05 0
-0.000194 -4.12172e-05 0
-0.000183853 -3.10669e-05 0
-0.000160625 -4.27955e-05 0
-0.000137102 -2.83124e-05 0
-0.000116391 -2.09656e-05 0
-0.000113501 -8.85996e-06 0
-8.86709e-05 -1.60097e-05 0
-5.66285e-05 -8.64789e-06 0
-5.19996e-05 1.2858e-05 0
-3.1985e-05 -4.46282e-06 0
-1.83186e-05 1.73937e-05 0
-7.37886e-06 7.96292e-06 0
5.72698e-07 -6.93731e-06 0
-2.3339e-06 1.88738e-05 0
-4.20916e-05 4.40111e-05 0
-8.5356e-05 3.26217e-05 0
-0.00010919 6.12281e-05 0
-0.000151411 0.000101113 0
-0.000197095 8.26862e-05 0
-0.00022711 9.96351e-05 0
-0.000268887 0.000130091 0
-0.000311589 0.000139666 0
-0.000338733 0.00012514 0
-0.000385548 0.000133254 0
-0.000439336 0.00012323 0
-0.000491399 8.56001e-05 0
-0.000549383 2.54011e-05 0
-0.000627989 -1.71111e-05 0
-0.000714949 -9.88372e-05 0
-0.000802566 -0.000178054 0
-0.00089955 -0.000249489 0
-0.000993954 -0.000290014 0
-0.00108276 -0.000323553 0
-0.00115579 -0.000304134 0
-0.00121684 -0.000250921 0
-0.00125565 -0.000162013 0
-0.00127465 -5.67821e-05 0
-0.00127376 6.5699e-05 0
-0.00125058 0.000168841 0
-0.00120704 0.000252829 0
-0.00114548 0.000299926 0
-0.00107325 0.000315208 0
-0.000983657 0.000280102 0
-0.000891536 0.000239651 0
-0.000798469 0.000171139 0
-0.000712467 9.82196e-05 0
-0.000628619 2.30009e-05 0
-0.000552406 -1.31992e-05 0
-0.000494463 -6.57388e-05 0
-0.000442857 -9.79663e-05 0
-0.000391222 -0.000103596 0
-0.000343127 -9.21032e-05 0
-0.000314556 -0.000103421 0
-0.00027312 -9.45143e-05 0
-0.000231553 -6.23117e-05 0
-0.000199471 -4.69006e-05 0
-0.000154685 -6.43779e-05 0
-0.000113325 -2.96383e-05 0
-8.96003e-05 1.6645e-06 0
-4.55881e-05 -1.63614e-05 0
-8.47797e-06 1.574e-05 0
-5.60731e-06 2.3649e-05 0
6.51026e-06 -1.20716e-05 0
1.62133e-05 2.18991e-05 0
1.29392e-05 9.94518e-05 0
-4.95467e-05 0.000106642 0
-0.000116656 9.31132e-05 0
-0.000125739 0.000138791 0
-0.000154362 0.000133332 0
-0.000213645 0.000151396 0
-0.000256421 0.000162853 0
-0.00027723 0.000164712 0
-0.000330273 0.000163569 0
-0.000399165 0.000154856 0
-0.000446522 0.000127833 0
-0.000509142 8.4236e-05 0
-0.000600079 2.67289e-05 0
-0.000687923 -4.96469e-05 0
-0.000759129 -0.000134185 0
-0.000843264 -0.000217258 0
-0.000921965 -0.000295159 0
-0.000973852 -0.000344461 0
-0.00100945 -0.000357102 0
-0.00103783 -0.000336114 0
-0.00104907 -0.000277595 0
-0.00105016 -0.00017422 0
-0.00105183 -5.48764e-05 0
-0.00105224 6.65286e-05 0
-0.00105051 0.000181197 0
-0.00104787 0.000281197 0
-0.00103517 0.000334853 0
-0.00100524 0.000350937 0
-0.000966403 0.000337399 0
-0.00091244 0.000290797 0
-0.000834002 0.000217477 0
-0.00075014 0.000141536 0
-0.000679686 6.72458e-05 0
-0.000594772 -2.77978e-06 0
-0.0005066 -5.39782e-05 0
-0.000444505 -8.97228e-05 0
-0.000399634 -0.000115332 0
-0.000333073 -0.000123075 0