# vtk DataFile Version 4.0
SiwiRVisFile
ASCII
DATASET STRUCTURED_POINTS
DIMENSIONS 28 14 1
ORIGIN 0 0 0
SPACING 1 1 1
POINT_DATA 392

SCALARS flags double 1
LOOKUP_TABLE default
1
1
1
1
1
1
1
1
1
1
1
1
1
1
1
1
1
1
1
1
1
1
1
1
1
1
1
1
1
1
1
1
1
1
1
1
1
1
1
1
1
1
1
1
1
1
1
1
1
1
1
1
1
1
1
1
1
1
1
1
1
1
1
1
1
1
1
1
1
1
1
1
1
1
1
1
1
1
1
1
1
1
1
1
1
1
1
1
1
1
1
1
1
1
1
1
1
1
1
1
1
1
1
1
1
1
1
1
1
1
1
1
1
1
1
1
1
1
1
1
1
1
1
1
1
1
1
1
1
1
1
1
1
1
1
1
1
1
1
1
1
1
1
1
1
1
1
1
1
1
1
1
1
1
1
1
1
1
1
1
1
1
1
1
1
1
1
1
1
1
1
1
1
1
1
1
1
1
1
1
1
1
1
1
1
1
1
1
1
1
1
1
1
1
1
1
1
1
1
1
1
1
1
1
1
1
1
1
1
1
1
1
1
1
1
1
1
1
1
1
1
1
1
1
1
1
1
1
1
1
1
1
1
1
1
1
1
1
1
1
1
1
1
1
1
1
1
1
1
1
1
1
1
1
1
1
1
1
1
1
1
1
1
1
1
1
1
1
1
1
1
1
1
1
1
1
1
1
1
1
1
1
1
1
1
1
1
1
1
1
1
1
1
1
1
1
1
1
1
1
1
1
1
1
1
1
1
1
1
1
1
1
1
1
1
1
1
1
1
1
1
1
1
1
1
1
1
1
1
1
1
1
1
1
1
1
1
1
1
1
1
1
1
1
1
1
1
1
1
1
1
1
1
1
1
1
1
1
1
1
1
1
1
1
1
1
1
1
1
1
1
1
1
1
1
1
1
1
1
1
1
1
1
1
1
1
1
1
1
1
1
1

SCALARS density double 1
LOOKUP_TABLE default
0.987837
0.980741
0.979945
0.998752
0.998193
0.998091
0.998056
1.00046
1.00123
1.00056
1.00299
1.00558
1.00504
1.00505
1.00609
1.00603
1.00589
1.00715
1.00827
1.00903
1.0077
1.01236
1.01751
1.01487
1.01086
1.01578
1.01794
1.01194
0.98499
0.978596
0.982713
0.999477
0.995625
0.998557
0.999981
0.999237
1.00016
1.00209
1.00317
1.00414
1.00565
1.00586
1.00549
1.00543
1.00654
1.00761
1.00753
1.0087
1.00858
1.01253
1.01631
1.01494
1.01259
1.01485
1.01637
1.01367
0.976575
0.987046
0
0
0
0
0
0
0
0
0
0
1.00563
1.00562
1.00535
0
0
0
0
0
0
0
1.01031
1.01375
1.01927
1.01328
1.01036
1.01775
0.96728
0.969728
0
0
0
0
0
0
0
0
0
0
0
1.0057
1.00553
0
0
0
0
0
0
0
0
1.01449
1.01467
1.01475
1.01438
1.01424
0.975276
0.961985
0
0
0
1.00497
0.999898
1.00525
1.00813
1.00488
1.00456
1.00778
1.00848
1.00463
1.00506
1.00918
1.00724
1.00435
1.00936
1.01207
1.00757
1.01142
1.01829
1.01538
1.00937
1.01605
1.0194
1.01114
0.967623
0.970605
0
0
0
0.999851
1.00526
1.00733
1.00279
1.00486
1.00955
1.00598
1.00432
1.00793
1.00797
1.0047
1.00623
1.00942
1.00794
1.00743
1.01133
1.01471
1.01259
1.01418
1.01626
1.01386
1.01308
1.01678
0.963582
0.977937
0.972023
0
0
1.00485
1.00867
1.00158
0
0
0
0
0
0
0
1.00505
1.00647
0
0
0
0
0
0
0
1.02041
1.01332
1.00939
1.01781
0.974026
0.964259
0.966784
0.974569
0
0
1.00005
1.00125
0
0
0
0
0
0
1.00653
1.00688
1.00508
0
0
0
0
0
0
1.01408
1.01082
1.01619
1.01872
1.00993
0.973716
0.961014
0.9668
0.978223
0
0
0.996096
1.00292
1.00182
0.990927
0.999168
1.00535
1.00392
1.0035
1.00609
1.00759
1.00597
1.0038
1.00691
1.00977
1.00581
1.01013
1.01637
1.0159
1.00977
1.0149
1.01932
1.01215
0.961589
0.978468
0.972381
0.958973
0
0
0
0.996972
0.998988
0.996393
1.00009
1.00052
1.00418
1.00773
1.00508
1.00388
1.00722
1.00806
1.00414
1.00556
1.0106
1.01352
1.00936
1.0143
1.01943
1.012
1.00765
1.02262
0.967478
0.974914
0.969879
0.963235
0.970717
0
0
0.990961
0.992572
0
0
0
0
0
0
0
1.00481
1.00747
0
0
0
0
0
0
0
1.01482
1.00978
1.01647
0.977689
0.953836
0.965033
0.983719
0.968654
0
0
0.986475
0.982933
0.99325
0.993797
0.986779
0
0
0
0
0
1.00059
1.00534
1.00555
1.00182
0
0
0
0
0
1.02901
1.0045
0.964473
0.96698
0.96956
0.969652
0.969146
0.976515
0.985331
0.989371
0.989071
0.989104
0.987754
0.993754
0.994295
0.99389
0.995289
1.00081
1.00148
1.00028
1.00451
1.00668
1.00177
1.00409
1.01437
1.01002
1.00362
1.0192
1.01199
1.0119
0.958419
0.984726
0.9718
0.957447
0.973088
0.982218
0.980327
0.988058
0.992793
0.987127
0.988006
0.994348
0.992991
0.995489
0.996169
0.997026
1.00262
1.0053
1.00013
1.0016
1.01062
1.0069
1.00093
1.01281
1.01989
1.00768
0.996524
1.03471

VECTORS velocity double
-0.000512469 0.000516878 0
-0.00552889 0.00240302 0
-0.00840561 2.93826e-06 0
-0.00803231 -0.000507917 0
-0.00708129 -9.84768e-05 0
-0.00772388 0.000498367 0
-0.00830307 -9.84786e-05 0
-0.00758239 -0.000384615 0
-0.00733389 0.000180445 0
-0.00799366 0.00024658 0
-0.0080281 -0.000220767 0
-0.00735613 -0.000286505 0
-0.00730578 0.000203593 0
-0.00687777 -0.000530215 0
-0.00610939 -4.18619e-05 0
-0.00644435 0.000156787 0
-0.00649933 -0.000219576 0
-0.00616809 -0.000144636 0
-0.0063441 0.000108982 0
-0.00659728 -0.000115122 0
-0.00624661 -0.000306438 0
-0.00623372 0.000212809 0
-0.0063249 -0.000405638 0
-0.00422352 -0.0011707 0
-0.00226737 -0.00029446 0
-0.0017174 -0.000113788 0
-0.00100813 -0.00064278 0
-4.60534e-05 -9.06091e-05 0
-0.00246677 0.00541828 0
-0.00726636 0.00716851 0
-0.00708786 0.000766056 0
-0.00745237 -0.000640437 0
-0.00841322 -6.59028e-05 0
-0.00775964 0.00049658 0
-0.00719221 -8.65111e-05 0
-0.00790071 -0.000374909 0
-0.00816139 0.000197714 0
-0.00748993 0.000274878 0
-0.00746618 -0.00023159 0
-0.0081293 -0.000344056 0
-0.00735835 -0.000816251 0
-0.00674408 -0.000707663 0
-0.00683314 -0.00041146 0
-0.00628715 0.000270539 0
-0.00623142 -6.6786e-05 0
-0.00656661 2.12796e-06 0
-0.00638158 0.000271072 0
-0.00614197 4.6508e-05 0
-0.00647564 -7.46284e-05 0
-0.00650667 0.000254307 0
-0.00563083 -0.00187432 0
-0.00502048 -0.00271306 0
-0.00422591 -0.00219696 0
-0.00227291 -0.00111651 0
-0.00146422 -0.00144352 0
-0.000554335 -0.000901234 0
-0.000682573 0.00961639 0
-0.00125246 0.00587642 0
0 0 0
0 0 0
0 0 0
0 0 0
0 0 0
0 0 0
0 0 0
0 0 0
0 0 0
0 0 0
-0.000826971 -0.000983559 0
-0.000798268 -0.00118558 0
5.9399e-05 -0.000662175 0
0 0 0
0 0 0
0 0 0
0 0 0
0 0 0
0 0 0
0 0 0
-0.000764335 -0.00130711 0
-0.00245887 -0.00188584 0
-0.00297273 -0.00398399 0
-0.00167176 -0.00216474 0
-0.00108524 -0.0015041 0
-0.000333059 -0.00225393 0
0.00184734 0.00836315 0
0.00193494 0.00711992 0
0 0 0
0 0 0
0 0 0
0 0 0
0 0 0
0 0 0
0 0 0
0 0 0
0 0 0
0 0 0
0 0 0
-0.000662084 -0.00157224 0
-0.000636055 -0.00114287 0
0 0 0
0 0 0
0 0 0
0 0 0
0 0 0
0 0 0
0 0 0
0 0 0
-0.00166447 -0.000252469 0
-0.00391009 -0.00273703 0
-0.0035679 -0.00370837 0
-0.000960827 -0.00387531 0
0.000640665 -0.0019181 0
0.000267478 0.00497802 0
0.00030323 0.0105225 0
0 0 0
0 0 0
0 0 0
-0.000103524 3.01522e-05 0
-0.00181753 0.00115328 0
-0.0020693 -0.000896132 0
-0.00126466 0.000265649 0
-0.00215742 0.000353908 0
-0.00238461 -0.000195674 0
-0.00188389 -0.000120671 0
-0.00202588 0.000116788 0
-0.00243131 -0.000861634 0
-0.00316594 -0.00119067 0
-0.00351786 -0.000398323 0
-0.00329763 -1.67098e-05 0
-0.00398035 0.000462797 0
-0.00480911 6.05385e-05 0
-0.00427215 -0.000591389 0
-0.00330718 -0.00016994 0
-0.00418276 0.000753519 0
-0.00554943 0.000485817 0
-0.0039501 -0.000737825 0
-0.00229866 -0.000924095 0
-0.00261572 -0.00516915 0
-0.00256501 -0.00645106 0
-0.00081778 -0.00201475 0
-0.00242707 0.00815762 0
-0.00247013 0.00731456 0
0 0 0
0 0 0
0 0 0
-0.00100428 0.00186968 0
-0.000537928 0.000773762 0
-0.00100523 0.000244901 0
-0.0028586 0.000305948 0
-0.00196301 0.000444831 0
-0.00173127 -0.000208509 0
-0.00224518 -9.90438e-05 0
-0.00208171 0.000178684 0
-0.0021161 -0.000184252 0
-0.00289957 -0.000171824 0
-0.00354999 -0.000174863 0
-0.00438108 0.000844097 0
-0.00435173 0.000624075 0
-0.00348589 0.000171731 0
-0.00405835 -0.000493928 0
-0.00499034 -3.16091e-05 0
-0.00414166 0.000727681 0
-0.0027584 0.00035775 0
-0.00373935 -0.000984365 0
-0.00252254 -0.00460041 0
0.00103895 -0.00526115 0
-0.000931336 -0.00371122 0
-0.00154153 -0.00560433 0
0.000570384 0.0111068 0
0.000407576 0.00427953 0
-0.000151459 0.000154154 0
0 0 0
0 0 0
0.00111608 0.00173163 0
0.00055052 0.000454797 0
-0.000449737 0.00194945 0
0 0 0
0 0 0
0 0 0
0 0 0
0 0 0
0 0 0
0 0 0
-0.000943869 0.00112267 0
-0.000883728 0.000284826 0
0 0 0
0 0 0
0 0 0
0 0 0
0 0 0
0 0 0
0 0 0
-0.00167489 -0.00669916 0
-0.00298135 -0.00502272 0
2.22098e-05 -0.00380651 0
0.00160241 -0.00556093 0
0.00282531 0.00607751 0
0.00357655 0.00916676 0
0.000512227 0.000823057 0
-0.000587284 -0.000683957 0
0 0 0
0 0 0
0.000919166 0.00235748 0
0.00112512 0.00175012 0
0 0 0
0 0 0
0 0 0
0 0 0
0 0 0
0 0 0
-0.000868945 0.0010602 0
-0.000548375 0.000702464 0
0.000395406 -0.000299264 0
0 0 0
0 0 0
0 0 0
0 0 0
0 0 0
0 0 0
-0.00138982 0.0013904 0
-0.00377332 -0.00246455 0
-0.00822226 -0.00361229 0
-0.00593453 -0.0135898 0
0.000376539 -0.00274238 0
-0.00151307 0.00381374 0
0.00105734 0.0091493 0
0.00504762 0.00145434 0
0.00208991 0.00119723 0
0 0 0
0 0 0
0.000898352 0.00132669 0
0.00108237 0.00164859 0
-0.00423078 0.00380429 0
-0.00762404 -0.00020202 0
-0.00562467 -0.00103636 0
-0.00564785 0.000923482 0
-0.00766903 0.000423815 0
-0.00674314 -0.000894474 0
-0.00460861 0.00127568 0
-0.00620695 0.000752764 0
-0.00673037 -0.000786716 0
-0.00534597 0.000101091 0
-0.00712899 0.00113705 0
-0.00811408 -0.000564282 0
-0.00572651 -0.00111445 0
-0.00572222 0.00120531 0
-0.00892994 0.00122036 0
-0.00641582 -0.000350156 0
-0.00401038 0.00201184 0
-0.00964966 -0.000107616 0
-0.0127526 -0.0167224 0
-0.00522219 -0.00967962 0
-0.00126437 0.00805077 0
-0.00024506 0.000355994 0
0.00115117 0.00161996 0
-8.72057e-05 0.00530928 0
0 0 0
0 0 0
0 0 0
-0.00239841 0.00639186 0
-0.0050063 0.00849252 0
-0.00538219 0.000203835 0
-0.00730999 -0.000916006 0
-0.00736143 0.000939383 0
-0.00526546 0.000392603 0
-0.00625788 -0.000956328 0
-0.00745955 0.000179073 0
-0.00513896 0.00104655 0
-0.00539447 0.000256082 0
-0.00803118 0.000356256 0
-0.00649825 0.00124662 0
-0.00549484 -0.000510855 0
-0.00791847 -0.00102691 0
-0.00787227 0.00110703 0
-0.00471911 0.00111238 0
-0.00578062 -0.00198384 0
-0.00704141 0.00171199 0
-0.00159999 -0.00191094 0
-0.00326331 -0.00802102 0
-0.00380906 -0.0234878 0
0.00169392 0.00759189 0
-0.00626526 0.00632226 0
-0.0142083 0.00183426 0
-0.00787899 0.0015595 0
-0.00105307 -0.00156858 0
0 0 0
0 0 0
0.00170519 0.00840203 0
0.00182922 0.00872413 0
0 0 0
0 0 0
0 0 0
0 0 0
0 0 0
0 0 0
0 0 0
0.000494426 0.0011901 0
0.000452921 0.000910518 0
0 0 0
0 0 0
0 0 0
0 0 0
0 0 0
0 0 0
0 0 0
-0.00134891 -0.00245682 0
0.00613245 -0.0147989 0
0.00802566 -0.0173669 0
-0.00201911 0.00777618 0
-0.0118767 0.023772 0
-0.0117329 -0.00298574 0
-0.0050205 -0.00681591 0
-0.00277091 -0.00650608 0
0 0 0
0 0 0
-0.000287924 0.00548398 0
0.00375772 0.0063836 0
0.00410153 0.00475994 0
0.000789393 0.000117401 0
0.000138918 0.000141365 0
0 0 0
0 0 0
0 0 0
0 0 0
0 0 0
0.00045499 0.00156322 0
0.000179868 0.000602656 0
-0.000548038 -5.68691e-05 0
-0.000320779 -0.000220726 0
0 0 0
0 0 0
0 0 0
0 0 0
0 0 0
-0.000817828 -0.0288016 0
-0.000427242 -0.0059069 0
-0.00642316 0.0201461 0
-0.00931597 0.0188973 0
-0.000869203 -0.00787804 0
0.00496545 -0.0104731 0
-0.00151312 -0.00110378 0
-0.00987738 -0.00054972 0
-0.00505728 -0.00249602 0
-0.000682022 0.0042039 0
-0.00294552 0.00674091 0
-0.000407504 0.00277685 0
0.00463378 0.001067 0
0.00186808 0.0018502 0
0.00153896 -0.00102174 0
0.00470995 -0.000928903 0
0.00378194 0.00166453 0
0.000739479 0.000482115 0
0.00284866 -0.00154823 0
0.00589675 0.00138634 0
0.00266268 0.00316312 0
0.00116623 -0.00114846 0
0.00650952 -0.00261532 0
0.00626683 0.00244144 0
-4.80532e-05 0.0015822 0
0.00321105 -0.00377488 0
0.00913698 4.68391e-05 0
0.00252719 0.00434058 0
-0.0110713 -0.0174224 0
-0.00808609 -0.018456 0
0.0232775 0.0150146 0
0.0503321 0.00323921 0
0.0490289 -0.00411583 0
0.03537 -0.00515886 0
0.0341401 0.00397248 0
0.0387002 -0.000720955 0
0.0338942 -0.00271802 0
0.0316974 0.00119025 0
0.0396157 0.00393581 0
0.0421849 -0.00220213 0
0.0405203 0.000793315 0
0.0438667 0.00142191 0
0.0443834 -0.00118605 0
0.0412032 -0.00103752 0
0.0421294 0.00158194 0
0.0451774 0.000290748 0
0.0430696 -0.00179231 0
0.0409222 0.0002924 0
0.0451476 0.00243504 0
0.0473817 -0.0012022 0
0.041806 -0.00255315 0
0.0417203 0.00249514 0
0.0480628 0.00153894 0
0.0447826 -0.00391955 0
0.0388549 6.94243e-05 0
0.0454816 0.00427851 0
0.0489308 -0.00209745 0
0.0237147 -0.0153507 0

