# vtk DataFile Version 4.0
SiwiRVisFile
ASCII
DATASET STRUCTURED_POINTS
DIMENSIONS 28 14 1
ORIGIN 0 0 0
SPACING 1 1 1
POINT_DATA 392

SCALARS flags double 1
LOOKUP_TABLE default
1
1
1
1
1
1
1
1
1
1
1
1
1
1
1
1
1
1
1
1
1
1
1
1
1
1
1
1
1
1
1
1
1
1
1
1
1
1
1
1
1
1
1
1
1
1
1
1
1
1
1
1
1
1
1
1
1
1
1
1
1
1
1
1
1
1
1
1
1
1
1
1
1
1
1
1
1
1
1
1
1
1
1
1
1
1
1
1
1
1
1
1
1
1
1
1
1
1
1
1
1
1
1
1
1
1
1
1
1
1
1
1
1
1
1
1
1
1
1
1
1
1
1
1
1
1
1
1
1
1
1
1
1
1
1
1
1
1
1
1
1
1
1
1
1
1
1
1
1
1
1
1
1
1
1
1
1
1
1
1
1
1
1
1
1
1
1
1
1
1
1
1
1
1
1
1
1
1
1
1
1
1
1
1
1
1
1
1
1
1
1
1
1
1
1
1
1
1
1
1
1
1
1
1
1
1
1
1
1
1
1
1
1
1
1
1
1
1
1
1
1
1
1
1
1
1
1
1
1
1
1
1
1
1
1
1
1
1
1
1
1
1
1
1
1
1
1
1
1
1
1
1
1
1
1
1
1
1
1
1
1
1
1
1
1
1
1
1
1
1
1
1
1
1
1
1
1
1
1
1
1
1
1
1
1
1
1
1
1
1
1
1
1
1
1
1
1
1
1
1
1
1
1
1
1
1
1
1
1
1
1
1
1
1
1
1
1
1
1
1
1
1
1
1
1
1
1
1
1
1
1
1
1
1
1
1
1
1
1
1
1
1
1
1
1
1
1
1
1
1
1
1
1
1
1
1
1
1
1
1
1
1
1
1
1
1
1
1
1
1
1
1
1
1
1
1
1
1
1
1
1
1
1
1
1
1
1
1
1
1
1
1

SCALARS density double 1
LOOKUP_TABLE default
0.987837
0.980741
0.979945
0.998752
0.998193
0.998091
0.998056
1.00046
1.00123
1.00056
1.00299
1.00558
1.00504
1.00505
1.00609
1.00603
1.00589
1.00715
1.00827
1.00903
1.0077
1.01236
1.01751
1.01487
1.01086
1.01578
1.01794
1.01194
0.98499
0.978596
0.982713
0.999477
0.995625
0.998557
0.999981
0.999237
1.00016
1.00209
1.00317
1.00414
1.00565
1.00586
1.00549
1.00543
1.00654
1.00761
1.00753
1.0087
1.00858
1.01253
1.01631
1.01494
1.01259
1.01485
1.01637
1.01367
0.976575
0.987046
0
0
0
0
0
0
0
0
0
0
1.00563
1.00562
1.00535
0
0
0
0
0
0
0
1.01031
1.01375
1.01927
1.01328
1.01036
1.01775
0.96728
0.969728
0
0
0
0
0
0
0
0
0
0
0
1.0057
1.00553
0
0
0
0
0
0
0
0
1.01449
1.01467
1.01475
1.01438
1.01424
0.975276
0.961985
0
0
0
1.00497
0.999898
1.00525
1.00813
1.00488
1.00456
1.00778
1.00848
1.00463
1.00506
1.00918
1.00724
1.00435
1.00936
1.01207
1.00757
1.01142
1.01829
1.01538
1.00937
1.01605
1.0194
1.01114
0.967623
0.970605
0
0
0
0.999851
1.00526
1.00733
1.00279
1.00486
1.00955
1.00598
1.00432
1.00793
1.00797
1.0047
1.00623
1.00942
1.00794
1.00743
1.01133
1.01471
1.01259
1.01418
1.01626
1.01386
1.01308
1.01678
0.963582
0.977937
0.972023
0
0
1.00485
1.00867
1.00158
0
0
0
0
0
0
0
1.00505
1.00647
0
0
0
0
0
0
0
1.02041
1.01332
1.00939
1.01781
0.974026
0.964259
0.966784
0.974569
0
0
1.00005
1.00125
0
0
0
0
0
0
1.00653
1.00688
1.00508
0
0
0
0
0
0
1.01408
1.01082
1.01619
1.01872
1.00993
0.973717
0.961014
0.9668
0.978223
0
0
0.996096
1.00292
1.00182
0.990927
0.999168
1.00535
1.00392
1.00351
1.00609
1.00759
1.00597
1.0038
1.00691
1.00977
1.00581
1.01013
1.01637
1.0159
1.00978
1.0149
1.01932
1.01215
0.961589
0.978468
0.972381
0.958973
0
0
0
0.996972
0.998988
0.996392
1.00009
1.00052
1.00418
1.00773
1.00508
1.00388
1.00722
1.00806
1.00414
1.00556
1.0106
1.01352
1.00936
1.01429
1.01943
1.012
1.00765
1.02262
0.967478
0.974915
0.969879
0.963235
0.970717
0
0
0.990961
0.992572
0
0
0
0
0
0
0
1.00481
1.00747
0
0
0
0
0
0
0
1.01482
1.00978
1.01647
0.977689
0.953835
0.965033
0.983719
0.968654
0
0
0.986475
0.982933
0.99325
0.993797
0.986779
0
0
0
0
0
1.00059
1.00534
1.00555
1.00182
0
0
0
0
0
1.02901
1.0045
0.964473
0.966981
0.969559
0.969652
0.969146
0.976515
0.985332
0.989371
0.989071
0.989104
0.987753
0.993754
0.994294
0.99389
0.995289
1.00081
1.00148
1.00028
1.0045
1.00668
1.00177
1.00409
1.01437
1.01002
1.00362
1.01921
1.01198
1.0119
0.958418
0.984726
0.9718
0.957448
0.973088
0.982219
0.980326
0.988058
0.992792
0.987127
0.988006
0.994348
0.992991
0.99549
0.996168
0.997028
1.00262
1.0053
1.00013
1.00161
1.01062
1.0069
1.00093
1.0128
1.0199
1.00767
0.996529
1.0347

VECTORS velocity double
-0.000510317 0.000517628 0
-0.00553103 0.00240337 0
-0.00840363 4.1115e-06 0
-0.00803424 -0.000507435 0
-0.00707932 -9.57388e-05 0
-0.00772593 0.000500334 0
-0.00830119 -9.37503e-05 0
-0.00758397 -0.000379543 0
-0.0073328 0.000188139 0
-0.00799426 0.000256089 0
-0.00802803 -0.000208854 0
-0.00735542 -0.000271153 0
-0.00730714 0.00022001 0
-0.00687548 -0.000510277 0
-0.00611265 -2.11783e-05 0
-0.00643997 0.000183054 0
-0.00650434 -0.000194061 0
-0.00616159 -0.000117369 0
-0.00635196 0.000124984 0
-0.00658865 -9.78517e-05 0
-0.0062553 -0.000300111 0
-0.00622487 0.000218236 0
-0.00633192 -0.000416701 0
-0.00421906 -0.00119786 0
-0.00227213 -0.000340003 0
-0.00171312 -0.000174807 0
-0.00101343 -0.00071108 0
-3.83147e-05 -0.000153008 0
-0.0024643 0.00541762 0
-0.00726838 0.00716789 0
-0.00708613 0.000764908 0
-0.00745428 -0.000640856 0
-0.00841123 -6.86478e-05 0
-0.0077616 0.0004945 0
-0.0071904 -9.1188e-05 0
-0.00790236 -0.000379785 0
-0.00816015 0.000189877 0
-0.00749047 0.000265151 0
-0.00746668 -0.000243264 0
-0.00812771 -0.000358915 0
-0.00736078 -0.000832635 0
-0.00674127 -0.000726212 0
-0.00683591 -0.000431726 0
-0.00628384 0.00024463 0
-0.00623578 -9.15975e-05 0
-0.00656003 -2.49564e-05 0
-0.00638937 0.000254746 0
-0.00613356 2.92513e-05 0
-0.0064838 -8.07255e-05 0
-0.00649933 0.000249521 0
-0.00563664 -0.0018633 0
-0.00501735 -0.00268525 0
-0.00422798 -0.00215046 0
-0.0022715 -0.00105561 0
-0.00146407 -0.00137703 0
-0.000556582 -0.000834602 0
-0.000680553 0.00961707 0
-0.0012544 0.00587747 0
0 0 0
0 0 0
0 0 0
0 0 0
0 0 0
0 0 0
0 0 0
0 0 0
0 0 0
0 0 0
-0.000830567 -0.000967882 0
-0.000793573 -0.00116935 0
5.38125e-05 -0.000643557 0
0 0 0
0 0 0
0 0 0
0 0 0
0 0 0
0 0 0
0 0 0
-0.000762218 -0.00131654 0
-0.00246285 -0.00191352 0
-0.00296615 -0.00402996 0
-0.00167999 -0.00222449 0
-0.00107954 -0.00157024 0
-0.000334674 -0.0023232 0
0.00184871 0.00836164 0
0.00193327 0.00711837 0
0 0 0
0 0 0
0 0 0
0 0 0
0 0 0
0 0 0
0 0 0
0 0 0
0 0 0
0 0 0
0 0 0
-0.000655066 -0.00158627 0
-0.000642959 -0.0011577 0
0 0 0
0 0 0
0 0 0
0 0 0
0 0 0
0 0 0
0 0 0
0 0 0
-0.00168014 -0.000224499 0
-0.00389262 -0.00269413 0
-0.0035861 -0.00365337 0
-0.000940864 -0.00381137 0
0.000618821 -0.00185036 0
0.000268823 0.00498063 0
0.000301932 0.0105254 0
0 0 0
0 0 0
0 0 0
-0.000103659 2.95035e-05 0
-0.00181805 0.00115252 0
-0.00206812 -0.000895808 0
-0.001267 0.000264955 0
-0.00215309 0.000357277 0
-0.0023915 -0.000194522 0
-0.00187415 -0.00011173 0
-0.00203758 0.000123991 0
-0.00241865 -0.000847627 0
-0.00317786 -0.00118001 0
-0.00350717 -0.000393831 0
-0.00330769 -1.50101e-05 0
-0.00397349 0.000465974 0
-0.00480946 7.31932e-05 0
-0.0042791 -0.000587871 0
-0.003291 -0.000156125 0
-0.004209 0.000741533 0
-0.0055171 0.000481955 0
-0.00398301 -0.000768951 0
-0.00227048 -0.000964211 0
-0.00264298 -0.00521278 0
-0.00253974 -0.00650074 0
-0.000843357 -0.00207471 0
-0.00242251 0.00815433 0
-0.00247392 0.0073094 0
0 0 0
0 0 0
0 0 0
-0.00100319 0.00186993 0
-0.000539913 0.000774634 0
-0.00100283 0.000245369 0
-0.00286132 0.00030621 0
-0.0019588 0.000441306 0
-0.00173807 -0.00020967 0
-0.00223561 -0.000107774 0
-0.00209369 0.000172043 0
-0.00210227 -0.000198404 0
-0.00291369 -0.000180093 0
-0.00353814 -0.000178907 0
-0.00439004 0.00084548 0
-0.00434636 0.000620253 0
-0.00348534 0.00015923 0
-0.00406608 -0.000497009 0
-0.0049739 -4.5615e-05 0
-0.00416638 0.000739765 0
-0.00272603 0.000359873 0
-0.00377359 -0.000955123 0
-0.00248987 -0.0045654 0
0.00100963 -0.00523331 0
-0.000904909 -0.00368094 0
-0.00156361 -0.00556336 0
0.000569939 0.0111118 0
0.00040684 0.00428633 0
-0.000148769 0.000168423 0
0 0 0
0 0 0
0.00112128 0.00173189 0
0.00054439 0.000454432 0
-0.000442604 0.00194827 0
0 0 0
0 0 0
0 0 0
0 0 0
0 0 0
0 0 0
0 0 0
-0.000937097 0.00112682 0
-0.000887145 0.000277978 0
0 0 0
0 0 0
0 0 0
0 0 0
0 0 0
0 0 0
0 0 0
-0.00166304 -0.00672334 0
-0.00299326 -0.00503792 0
3.22862e-05 -0.00380965 0
0.00158371 -0.00556839 0
0.00282509 0.00606979 0
0.00357672 0.0091582 0
0.000511295 0.000807836 0
-0.000586227 -0.000707222 0
0 0 0
0 0 0
0.000899701 0.00235779 0
0.00114576 0.00174941 0
0 0 0
0 0 0
0 0 0
0 0 0
0 0 0
0 0 0
-0.000857569 0.00106339 0
-0.000565323 0.000703043 0
0.000418646 -0.000293265 0
0 0 0
0 0 0
0 0 0
0 0 0
0 0 0
0 0 0
-0.00139389 0.00141511 0
-0.00377458 -0.00244459 0
-0.00820282 -0.00361268 0
-0.00597326 -0.0136106 0
0.00042502 -0.00277319 0
-0.00151574 0.00382304 0
0.00105916 0.00916296 0
0.00504574 0.00147268 0
0.00209093 0.00122158 0
0 0 0
0 0 0
0.000869657 0.00132467 0
0.00111206 0.00165388 0
-0.00426249 0.00380732 0
-0.00759393 -0.000192389 0
-0.00564989 -0.00104031 0
-0.00563098 0.000931601 0
-0.00767083 0.000432907 0
-0.00675834 -0.000902943 0
-0.00457956 0.00128279 0
-0.00624492 0.000742018 0
-0.00668637 -0.000787939 0
-0.00540009 8.4796e-05 0
-0.00705869 0.00114082 0
-0.00819255 -0.000617358 0
-0.00565504 -0.001102 0
-0.00576788 0.00117939 0
-0.00892529 0.00118021 0
-0.00638588 -0.000355954 0
-0.0040688 0.00198422 0
-0.00957544 -9.91639e-05 0
-0.0128127 -0.0166935 0
-0.00518524 -0.00960252 0
-0.00126388 0.00804003 0
-0.00024218 0.000338446 0
0.00114557 0.00159745 0
-8.40937e-05 0.00527894 0
0 0 0
0 0 0
0 0 0
-0.00236023 0.00638459 0
-0.00504023 0.00848585 0
-0.00535213 0.000195192 0
-0.00733574 -0.000911794 0
-0.00734435 0.000930118 0
-0.00526874 0.000383349 0
-0.00627317 -0.000946697 0
-0.00742582 0.000162969 0
-0.00519006 0.00106616 0
-0.00533151 0.000261951 0
-0.00809243 0.000362928 0
-0.00643639 0.00125115 0
-0.0055687 -0.000459201 0
-0.00784653 -0.00104107 0
-0.00791731 0.0011383 0
-0.0047172 0.00115918 0
-0.00573256 -0.00199424 0
-0.00712839 0.00175797 0
-0.00148787 -0.00190886 0
-0.00339241 -0.00805541 0
-0.00369395 -0.0235665 0
0.00167537 0.0076066 0
-0.00625272 0.00633941 0
-0.0142125 0.00186058 0
-0.00787655 0.00159454 0
-0.00105799 -0.00152724 0
0 0 0
0 0 0
0.00173129 0.00841183 0
0.00179505 0.00873946 0
0 0 0
0 0 0
0 0 0
0 0 0
0 0 0
0 0 0
0 0 0
0.000535483 0.00117307 0
0.000408582 0.000915743 0
0 0 0
0 0 0
0 0 0
0 0 0
0 0 0
0 0 0
0 0 0
-0.00126966 -0.00246682 0
0.00606711 -0.0147834 0
0.00814391 -0.0173419 0
-0.00203018 0.00775747 0
-0.0118727 0.0237515 0
-0.0117388 -0.00302049 0
-0.00501844 -0.00684727 0
-0.00277853 -0.00653392 0
0 0 0
0 0 0
-0.000278977 0.00546392 0
0.00374265 0.00635543 0
0.00411433 0.00473602 0
0.000778436 9.07722e-05 0
0.000143997 0.000125334 0
0 0 0
0 0 0
0 0 0
0 0 0
0 0 0
0.000480862 0.00155816 0
0.000158338 0.000631006 0
-0.00051251 -1.43964e-05 0
-0.000366838 -0.000176894 0
0 0 0
0 0 0
0 0 0
0 0 0
0 0 0
-0.000776138 -0.0288132 0
-0.000441414 -0.00593733 0
-0.00645616 0.0201713 0
-0.00930887 0.0189351 0
-0.000871153 -0.00784118 0
0.00496099 -0.0104485 0
-0.00150899 -0.00108355 0
-0.00987708 -0.000534016 0
-0.00505364 -0.00246237 0
-0.000681467 0.00423172 0
-0.00295079 0.00677854 0
-0.000406405 0.002806 0
0.00462589 0.00110172 0
0.00188051 0.00186627 0
0.00152642 -0.00099936 0
0.00472953 -0.000910736 0
0.00375565 0.00169895 0
0.000765606 0.000501949 0
0.00282555 -0.00150976 0
0.0059115 0.00138479 0
0.00264304 0.00316026 0
0.00119764 -0.00118352 0
0.00646125 -0.00264915 0
0.00637225 0.00244011 0
-0.000190106 0.00146175 0
0.00335481 -0.00364592 0
0.00901007 -4.43877e-05 0
0.00251964 0.00434575 0
-0.0109301 -0.0174236 0
-0.00820652 -0.0184584 0
0.02327 0.0149612 0
0.0503242 0.0031949 0
0.0490304 -0.00414407 0
0.0353749 -0.00517887 0
0.0341355 0.00394406 0
0.0387036 -0.000740029 0
0.0338926 -0.00274483 0
0.0317028 0.00115789 0
0.039606 0.00389024 0
0.0421927 -0.00223314 0
0.0405112 0.000753884 0
0.043876 0.00139993 0
0.0443747 -0.00120811 0
0.041214 -0.00106026 0
0.0421158 0.00154676 0
0.0451907 0.000269884 0
0.0430529 -0.0018211 0
0.0409394 0.000294977 0
0.0451285 0.00243115 0
0.0474088 -0.00116573 0
0.041778 -0.00252143 0
0.0417376 0.00252054 0
0.048069 0.00162584 0
0.0447384 -0.00399136 0
0.0389334 0.000147178 0
0.0454356 0.00429013 0
0.0490559 -0.00208754 0
0.022857 -0.0150147 0

