# vtk DataFile Version 4.0
SiwiRVisFile
ASCII
DATASET STRUCTURED_POINTS
DIMENSIONS 28 14 1
ORIGIN 0 0 0
SPACING 1 1 1
POINT_DATA 392

SCALARS flags double 1
LOOKUP_TABLE default
1
1
1
1
1
1
1
1
1
1
1
1
1
1
1
1
1
1
1
1
1
1
1
1
1
1
1
1
1
1
1
1
1
1
1
1
1
1
1
1
1
1
1
1
1
1
1
1
1
1
1
1
1
1
1
1
1
1
1
1
1
1
1
1
1
1
1
1
1
1
1
1
1
1
1
1
1
1
1
1
1
1
1
1
1
1
1
1
1
1
1
1
1
1
1
1
1
1
1
1
1
1
1
1
1
1
1
1
1
1
1
1
1
1
1
1
1
1
1
1
1
1
1
1
1
1
1
1
1
1
1
1
1
1
1
1
1
1
1
1
1
1
1
1
1
1
1
1
1
1
1
1
1
1
1
1
1
1
1
1
1
1
1
1
1
1
1
1
1
1
1
1
1
1
1
1
1
1
1
1
1
1
1
1
1
1
1
1
1
1
1
1
1
1
1
1
1
1
1
1
1
1
1
1
1
1
1
1
1
1
1
1
1
1
1
1
1
1
1
1
1
1
1
1
1
1
1
1
1
1
1
1
1
1
1
1
1
1
1
1
1
1
1
1
1
1
1
1
1
1
1
1
1
1
1
1
1
1
1
1
1
1
1
1
1
1
1
1
1
1
1
1
1
1
1
1
1
1
1
1
1
1
1
1
1
1
1
1
1
1
1
1
1
1
1
1
1
1
1
1
1
1
1
1
1
1
1
1
1
1
1
1
1
1
1
1
1
1
1
1
1
1
1
1
1
1
1
1
1
1
1
1
1
1
1
1
1
1
1
1
1
1
1
1
1
1
1
1
1
1
1
1
1
1
1
1
1
1
1
1
1
1
1
1
1
1
1
1
1
1
1
1
1
1
1
1
1
1
1
1
1
1
1
1
1
1
1
1
1
1
1
1

SCALARS density double 1
LOOKUP_TABLE default
0.987837
0.980741
0.979945
0.998752
0.998193
0.998091
0.998056
1.00046
1.00123
1.00056
1.00299
1.00558
1.00504
1.00505
1.00609
1.00603
1.00589
1.00715
1.00827
1.00903
1.0077
1.01236
1.01751
1.01487
1.01086
1.01578
1.01794
1.01194
0.98499
0.978596
0.982713
0.999477
0.995625
0.998557
0.999981
0.999237
1.00016
1.00209
1.00317
1.00414
1.00565
1.00586
1.00549
1.00543
1.00654
1.00761
1.00753
1.0087
1.00858
1.01253
1.01631
1.01494
1.01259
1.01485
1.01637
1.01367
0.976575
0.987046
0
0
0
0
0
0
0
0
0
0
1.00563
1.00562
1.00535
0
0
0
0
0
0
0
1.01031
1.01375
1.01927
1.01328
1.01036
1.01775
0.96728
0.969728
0
0
0
0
0
0
0
0
0
0
0
1.0057
1.00553
0
0
0
0
0
0
0
0
1.01449
1.01467
1.01475
1.01438
1.01424
0.975276
0.961985
0
0
0
1.00497
0.999898
1.00525
1.00813
1.00488
1.00456
1.00778
1.00848
1.00463
1.00506
1.00918
1.00724
1.00435
1.00936
1.01207
1.00757
1.01142
1.01829
1.01538
1.00937
1.01605
1.0194
1.01114
0.967623
0.970605
0
0
0
0.999851
1.00526
1.00733
1.00279
1.00486
1.00955
1.00598
1.00432
1.00793
1.00797
1.0047
1.00623
1.00942
1.00794
1.00743
1.01133
1.01471
1.01259
1.01418
1.01626
1.01386
1.01308
1.01678
0.963582
0.977937
0.972023
0
0
1.00485
1.00867
1.00158
0
0
0
0
0
0
0
1.00505
1.00647
0
0
0
0
0
0
0
1.02041
1.01332
1.00939
1.01781
0.974026
0.964259
0.966784
0.974569
0
0
1.00005
1.00125
0
0
0
0
0
0
1.00653
1.00688
1.00508
0
0
0
0
0
0
1.01408
1.01082
1.01619
1.01872
1.00993
0.973716
0.961014
0.9668
0.978223
0
0
0.996096
1.00292
1.00182
0.990927
0.999168
1.00535
1.00392
1.0035
1.00609
1.00759
1.00597
1.0038
1.00691
1.00977
1.00581
1.01013
1.01637
1.0159
1.00977
1.0149
1.01932
1.01215
0.961589
0.978468
0.972381
0.958973
0
0
0
0.996972
0.998988
0.996393
1.00009
1.00052
1.00418
1.00773
1.00508
1.00388
1.00722
1.00806
1.00414
1.00556
1.0106
1.01352
1.00936
1.0143
1.01943
1.012
1.00765
1.02262
0.967478
0.974914
0.969879
0.963235
0.970717
0
0
0.990961
0.992572
0
0
0
0
0
0
0
1.00481
1.00747
0
0
0
0
0
0
0
1.01482
1.00978
1.01647
0.977689
0.953837
0.965033
0.983719
0.968654
0
0
0.986475
0.982933
0.99325
0.993797
0.986779
0
0
0
0
0
1.00059
1.00534
1.00555
1.00182
0
0
0
0
0
1.02901
1.0045
0.964473
0.96698
0.96956
0.969652
0.969146
0.976515
0.985331
0.989371
0.989071
0.989104
0.987754
0.993754
0.994295
0.99389
0.995289
1.00081
1.00148
1.00028
1.00451
1.00668
1.00177
1.00409
1.01437
1.01002
1.00362
1.0192
1.01199
1.0119
0.958419
0.984726
0.9718
0.957447
0.973088
0.982218
0.980327
0.988058
0.992793
0.987127
0.988006
0.994348
0.992991
0.995489
0.996169
0.997026
1.00262
1.0053
1.00013
1.0016
1.01062
1.0069
1.00093
1.01281
1.01989
1.00768
0.996525
1.03471

VECTORS velocity double
-0.000513196 0.000516285 0
-0.00552824 0.00240237 0
-0.00840604 1.76579e-06 0
-0.00803219 -0.000509706 0
-0.00708112 -0.000100668 0
-0.00772429 0.000495158 0
-0.00830238 -0.000101865 0
-0.00758347 -0.000389804 0
-0.00733244 0.000175821 0
-0.00799539 0.000239926 0
-0.00802631 -0.000226337 0
-0.00735804 -0.000293909 0
-0.00730397 0.000197685 0
-0.00687947 -0.000536733 0
-0.00610776 -4.76086e-05 0
-0.00644589 0.000150465 0
-0.0064982 -0.000224969 0
-0.00616901 -0.000148438 0
-0.00634361 0.000108468 0
-0.00659725 -0.000111758 0
-0.00624705 -0.000299993 0
-0.00623278 0.000223281 0
-0.00632578 -0.000393318 0
-0.00422207 -0.00115568 0
-0.00226908 -0.000279612 0
-0.00171593 -9.75992e-05 0
-0.00100936 -0.000625893 0
-4.50416e-05 -7.44391e-05 0
-0.00246776 0.00541882 0
-0.00726565 0.00716926 0
-0.00708824 0.000767295 0
-0.00745221 -0.000638734 0
-0.00841311 -6.37381e-05 0
-0.00776009 0.000499931 0
-0.00719142 -8.31348e-05 0
-0.00790179 -0.000369892 0
-0.00816007 0.000202408 0
-0.00749164 0.000281678 0
-0.00746412 -0.000226133 0
-0.0081315 -0.000336938 0
-0.00735631 -0.000810217 0
-0.0067458 -0.000701644 0
-0.00683179 -0.000405908 0
-0.00628835 0.000276845 0
-0.00623046 -6.15358e-05 0
-0.00656754 5.89642e-06 0
-0.00638106 0.000271593 0
-0.00614192 4.31718e-05 0
-0.0064763 -8.09519e-05 0
-0.00650529 0.000243776 0
-0.00563239 -0.00188622 0
-0.00501877 -0.00272641 0
-0.00422761 -0.00221149 0
-0.00227139 -0.00113234 0
-0.00146569 -0.00145976 0
-0.000552696 -0.00091737 0
-0.000683391 0.00961584 0
-0.00125171 0.00587559 0
0 0 0
0 0 0
0 0 0
0 0 0
0 0 0
0 0 0
0 0 0
0 0 0
0 0 0
0 0 0
-0.00082529 -0.000989654 0
-0.000799935 -0.00119093 0
6.09425e-05 -0.000667263 0
0 0 0
0 0 0
0 0 0
0 0 0
0 0 0
0 0 0
0 0 0
-0.000766598 -0.00129588 0
-0.00245688 -0.00187405 0
-0.00297461 -0.00397041 0
-0.00166975 -0.00214948 0
-0.00108699 -0.00148813 0
-0.000331913 -0.00223848 0
0.00184626 0.00836399 0
0.0019362 0.00712073 0
0 0 0
0 0 0
0 0 0
0 0 0
0 0 0
0 0 0
0 0 0
0 0 0
0 0 0
0 0 0
0 0 0
-0.000662712 -0.00156776 0
-0.000635651 -0.00113866 0
0 0 0
0 0 0
0 0 0
0 0 0
0 0 0
0 0 0
0 0 0
0 0 0
-0.00166226 -0.000263259 0
-0.00391206 -0.00274925 0
-0.00356624 -0.00372302 0
-0.000962418 -0.00389128 0
0.000642674 -0.00193311 0
0.00026665 0.00497689 0
0.000304023 0.0105214 0
0 0 0
0 0 0
0 0 0
-0.000106508 2.97236e-05 0
-0.00181458 0.00115281 0
-0.00207216 -0.000897197 0
-0.00126191 0.000264568 0
-0.00215989 0.000352162 0
-0.00238266 -0.00019807 0
-0.00188522 -0.000123466 0
-0.00202539 0.000112655 0
-0.00243118 -0.000865311 0
-0.00316663 -0.0011939 0
-0.00351653 -0.000400462 0
-0.00329985 -1.86104e-05 0
-0.0039771 0.000463193 0
-0.00481312 5.96138e-05 0
-0.00426785 -0.000588281 0
-0.00331141 -0.000166717 0
-0.00417901 0.000759899 0
-0.00555204 0.000494762 0
-0.00394821 -0.000727803 0
-0.00230002 -0.000912386 0
-0.00261473 -0.00515502 0
-0.00256541 -0.00643624 0
-0.000818064 -0.00199879 0
-0.00242898 0.00815887 0
-0.00246856 0.00731628 0
0 0 0
0 0 0
0 0 0
-0.00100782 0.00187001 0
-0.000534661 0.000774331 0
-0.00100832 0.000245994 0
-0.0028558 0.000306999 0
-0.00196543 0.000446633 0
-0.00172923 -0.000206136 0
-0.00224661 -9.62514e-05 0
-0.00208128 0.000182866 0
-0.0021153 -0.000181079 0
-0.00290139 -0.000169012 0
-0.00354754 -0.000172993 0
-0.00438387 0.000845538 0
-0.00434868 0.000623837 0
-0.00348967 0.000172686 0
-0.00405409 -0.000496908 0
-0.0049944 -3.47214e-05 0
-0.0041381 0.000720862 0
-0.00276091 0.000348695 0
-0.00373813 -0.000993361 0
-0.00252274 -0.00461162 0
0.00103878 -0.005275 0
-0.000932182 -0.00372554 0
-0.00153885 -0.00562077 0
0.000570324 0.0111052 0
0.000408 0.00427737 0
-0.000152465 0.000149839 0
0 0 0
0 0 0
0.0011126 0.00173151 0
0.000554144 0.000454184 0
-0.000453138 0.0019482 0
0 0 0
0 0 0
0 0 0
0 0 0
0 0 0
0 0 0
0 0 0
-0.000939837 0.00112124 0
-0.000887745 0.000283868 0
0 0 0
0 0 0
0 0 0
0 0 0
0 0 0
0 0 0
0 0 0
-0.00167621 -0.00668907 0
-0.00297942 -0.00500967 0
2.23296e-05 -0.00379056 0
0.00159996 -0.0055451 0
0.00282526 0.00607996 0
0.00357659 0.00916941 0
0.000512478 0.000827639 0
-0.000587602 -0.000677054 0
0 0 0
0 0 0
0.000921606 0.00235837 0
0.0011228 0.00175144 0
0 0 0
0 0 0
0 0 0
0 0 0
0 0 0
0 0 0
-0.000874266 0.00105957 0
-0.000543629 0.000703577 0
0.000391031 -0.000298667 0
0 0 0
0 0 0
0 0 0
0 0 0
0 0 0
0 0 0
-0.00138843 0.0013828 0
-0.00377493 -0.00247447 0
-0.00822033 -0.00362414 0
-0.00593704 -0.0136049 0
0.000378888 -0.00275938 0
-0.00151216 0.00381087 0
0.0010567 0.00914513 0
0.00504829 0.00144887 0
0.00208945 0.00119009 0
0 0 0
0 0 0
0.000899201 0.00132522 0
0.00108223 0.00164722 0
-0.00423216 0.00380277 0
-0.00762059 -0.000202323 0
-0.0056307 -0.00104004 0
-0.00563962 0.000927678 0
-0.00767784 0.000421165 0
-0.0067351 -0.000891486 0
-0.00461531 0.00127533 0
-0.00620205 0.000752559 0
-0.00673362 -0.000787394 0
-0.00534433 0.000102734 0
-0.00712904 0.00114067 0
-0.00811483 -0.000558048 0
-0.00572525 -0.00110546 0
-0.00572333 0.00121181 0
-0.0089301 0.00122752 0
-0.00641462 -0.000341538 0
-0.00401203 0.00202247 0
-0.00964871 -9.63908e-05 0
-0.0127503 -0.0167129 0
-0.00522535 -0.00966303 0
-0.00126435 0.00805404 0
-0.000246058 0.00036124 0
0.001153 0.00162665 0
-8.82957e-05 0.0053181 0
0 0 0
0 0 0
0 0 0
-0.0023968 0.00639338 0
-0.00500831 0.00849403 0
-0.0053789 0.000204982 0
-0.00731566 -0.000912162 0
-0.0073537 0.000934855 0
-0.00527407 0.000394987 0
-0.0062496 -0.000959417 0
-0.00746599 0.000179878 0
-0.00513459 0.00104654 0
-0.00539765 0.00025675 0
-0.00802927 0.000355176 0
-0.00649903 0.00124318 0
-0.00549521 -0.00051644 0
-0.00791722 -0.00103505 0
-0.00787295 0.00109982 0
-0.0047191 0.00110486 0
-0.00578124 -0.00199204 0
-0.00703908 0.00170065 0
-0.00160461 -0.00192055 0
-0.00325988 -0.0080278 0
-0.00380933 -0.0235001 0
0.00169953 0.00758745 0
-0.00626905 0.00631717 0
-0.0142071 0.00182651 0
-0.00787964 0.00154929 0
-0.00105165 -0.00158027 0
0 0 0
0 0 0
0.00170684 0.00839897 0
0.00182854 0.00872097 0
0 0 0
0 0 0
0 0 0
0 0 0
0 0 0
0 0 0
0 0 0
0.000490977 0.00118939 0
0.000456367 0.000909307 0
0 0 0
0 0 0
0 0 0
0 0 0
0 0 0
0 0 0
0 0 0
-0.00135081 -0.00244851 0
0.00614253 -0.0147938 0
0.00800311 -0.0173577 0
-0.00201583 0.00778177 0
-0.0118778 0.023778 0
-0.0117313 -0.00297551 0
-0.00502087 -0.0068067 0
-0.00276897 -0.00649827 0
0 0 0
0 0 0
-0.000286135 0.00549006 0
0.00375736 0.00638978 0
0.00410344 0.00476781 0
0.000786412 0.000125273 0
0.000144119 0.000148118 0
0 0 0
0 0 0
0 0 0
0 0 0
0 0 0
0.000461848 0.00156776 0
0.000174501 0.000610166 0
-0.000542392 -5.06237e-05 0
-0.000325558 -0.000215514 0
0 0 0
0 0 0
0 0 0
0 0 0
0 0 0
-0.00080569 -0.0288068 0
-0.000441188 -0.00591169 0
-0.00641335 0.0201386 0
-0.00931804 0.018886 0
-0.000868641 -0.00788898 0
0.00496685 -0.0104803 0
-0.00151478 -0.00110942 0
-0.00987667 -0.00055427 0
-0.00505964 -0.00250731 0
-0.000679841 0.00419602 0
-0.00294696 0.00673178 0
-0.000405199 0.0027683 0
0.00463239 0.00105746 0
0.00186963 0.0018443 0
0.00153676 -0.00103201 0
0.0047126 -0.00093216 0
0.00377834 0.00165363 0
0.00074289 0.000475983 0
0.00284489 -0.00156041 0
0.00590045 0.0013793 0
0.00266031 0.00315441 0
0.00116917 -0.00115548 0
0.00650603 -0.00262124 0
0.00627246 0.00243914 0
-5.54523e-05 0.00157528 0
0.00321796 -0.00377628 0
0.00913373 4.30005e-05 0
0.00251744 0.00434572 0
-0.0110548 -0.0174154 0
-0.00809723 -0.018462 0
0.0232797 0.0150306 0
0.0503344 0.00325249 0
0.0490284 -0.00410743 0
0.0353687 -0.00515303 0
0.0341412 0.00398065 0
0.0386994 -0.000715154 0
0.0338946 -0.00270915 0
0.0316962 0.00119874 0
0.0396174 0.00394744 0
0.0421837 -0.00219372 0
0.0405216 0.000804725 0
0.0438656 0.00142972 0
0.044385 -0.00117666 0
0.0412005 -0.00103275 0
0.0421323 0.00159389 0
0.0451749 0.000297597 0
0.0430718 -0.00178301 0
0.0409202 0.000300151 0
0.0451494 0.00244461 0
0.0473811 -0.00119525 0
0.0418058 -0.00254732 0
0.0417205 0.00249919 0
0.0480632 0.00154511 0
0.0447822 -0.00391831 0
0.0388577 6.88812e-05 0
0.0454786 0.00427173 0
0.0489397 -0.0021028 0
0.023638 -0.0153129 0

