# vtk DataFile Version 4.0
SiwiRVisFile
ASCII
DATASET STRUCTURED_POINTS
DIMENSIONS 28 14 1
ORIGIN 0 0 0
SPACING 1 1 1
POINT_DATA 392

SCALARS flags double 1
LOOKUP_TABLE default
1
1
1
1
1
1
1
1
1
1
1
1
1
1
1
1
1
1
1
1
1
1
1
1
1
1
1
1
1
1
1
1
1
1
1
1
1
1
1
1
1
1
1
1
1
1
1
1
1
1
1
1
1
1
1
1
1
1
1
1
1
1
1
1
1
1
1
1
1
1
1
1
1
1
1
1
1
1
1
1
1
1
1
1
1
1
1
1
1
1
1
1
1
1
1
1
1
1
1
1
1
1
1
1
1
1
1
1
1
1
1
1
1
1
1
1
1
1
1
1
1
1
1
1
1
1
1
1
1
1
1
1
1
1
1
1
1
1
1
1
1
1
1
1
1
1
1
1
1
1
1
1
1
1
1
1
1
1
1
1
1
1
1
1
1
1
1
1
1
1
1
1
1
1
1
1
1
1
1
1
1
1
1
1
1
1
1
1
1
1
1
1
1
1
1
1
1
1
1
1
1
1
1
1
1
1
1
1
1
1
1
1
1
1
1
1
1
1
1
1
1
1
1
1
1
1
1
1
1
1
1
1
1
1
1
1
1
1
1
1
1
1
1
1
1
1
1
1
1
1
1
1
1
1
1
1
1
1
1
1
1
1
1
1
1
1
1
1
1
1
1
1
1
1
1
1
1
1
1
1
1
1
1
1
1
1
1
1
1
1
1
1
1
1
1
1
1
1
1
1
1
1
1
1
1
1
1
1
1
1
1
1
1
1
1
1
1
1
1
1
1
1
1
1
1
1
1
1
1
1
1
1
1
1
1
1
1
1
1
1
1
1
1
1
1
1
1
1
1
1
1
1
1
1
1
1
1
1
1
1
1
1
1
1
1
1
1
1
1
1
1
1
1
1
1
1
1
1
1
1
1
1
1
1
1
1
1
1
1
1
1
1

SCALARS density double 1
LOOKUP_TABLE default
0.987837
0.980741
0.979945
0.998752
0.998193
0.998091
0.998056
1.00046
1.00123
1.00056
1.00299
1.00558
1.00504
1.00505
1.00609
1.00603
1.00589
1.00715
1.00827
1.00903
1.0077
1.01236
1.01751
1.01487
1.01086
1.01578
1.01794
1.01194
0.98499
0.978596
0.982713
0.999477
0.995625
0.998557
0.999981
0.999237
1.00016
1.00209
1.00317
1.00414
1.00565
1.00586
1.00549
1.00543
1.00654
1.00761
1.00753
1.0087
1.00858
1.01253
1.01631
1.01494
1.01259
1.01485
1.01637
1.01367
0.976575
0.987046
0
0
0
0
0
0
0
0
0
0
1.00563
1.00562
1.00535
0
0
0
0
0
0
0
1.01031
1.01375
1.01927
1.01328
1.01036
1.01775
0.96728
0.969728
0
0
0
0
0
0
0
0
0
0
0
1.0057
1.00553
0
0
0
0
0
0
0
0
1.01449
1.01467
1.01475
1.01438
1.01424
0.975276
0.961985
0
0
0
1.00497
0.999898
1.00525
1.00813
1.00488
1.00456
1.00778
1.00848
1.00463
1.00506
1.00918
1.00724
1.00435
1.00936
1.01207
1.00757
1.01142
1.01829
1.01538
1.00937
1.01605
1.0194
1.01114
0.967623
0.970605
0
0
0
0.999851
1.00526
1.00733
1.00279
1.00486
1.00955
1.00598
1.00432
1.00793
1.00797
1.0047
1.00623
1.00942
1.00794
1.00743
1.01133
1.01471
1.01259
1.01418
1.01626
1.01386
1.01308
1.01678
0.963582
0.977937
0.972023
0
0
1.00485
1.00867
1.00158
0
0
0
0
0
0
0
1.00505
1.00647
0
0
0
0
0
0
0
1.02041
1.01332
1.00939
1.01781
0.974026
0.964259
0.966784
0.974569
0
0
1.00005
1.00125
0
0
0
0
0
0
1.00653
1.00688
1.00508
0
0
0
0
0
0
1.01408
1.01082
1.01619
1.01872
1.00993
0.973716
0.961014
0.9668
0.978223
0
0
0.996096
1.00292
1.00182
0.990927
0.999168
1.00535
1.00392
1.0035
1.00609
1.00759
1.00597
1.0038
1.00691
1.00977
1.00581
1.01013
1.01637
1.0159
1.00977
1.0149
1.01932
1.01215
0.961589
0.978468
0.972381
0.958973
0
0
0
0.996972
0.998988
0.996393
1.00009
1.00052
1.00418
1.00773
1.00508
1.00388
1.00722
1.00806
1.00414
1.00556
1.0106
1.01352
1.00936
1.0143
1.01943
1.012
1.00765
1.02262
0.967478
0.974914
0.969879
0.963235
0.970717
0
0
0.990961
0.992572
0
0
0
0
0
0
0
1.00481
1.00747
0
0
0
0
0
0
0
1.01482
1.00978
1.01647
0.977689
0.953836
0.965033
0.983719
0.968654
0
0
0.986475
0.982933
0.99325
0.993797
0.986779
0
0
0
0
0
1.00059
1.00534
1.00555
1.00182
0
0
0
0
0
1.02901
1.0045
0.964473
0.96698
0.96956
0.969652
0.969146
0.976515
0.985331
0.989371
0.989071
0.989104
0.987754
0.993754
0.994295
0.99389
0.995289
1.00081
1.00148
1.00028
1.00451
1.00668
1.00177
1.00409
1.01437
1.01002
1.00362
1.0192
1.01199
1.0119
0.958419
0.984726
0.9718
0.957447
0.973088
0.982218
0.980327
0.988058
0.992793
0.987127
0.988006
0.994348
0.992991
0.995489
0.996169
0.997026
1.00262
1.0053
1.00013
1.0016
1.01062
1.0069
1.00093
1.01281
1.01989
1.00768
0.996525
1.03471

VECTORS velocity double
-0.000512915 0.000516607 0
-0.00552849 0.00240275 0
-0.0084059 2.42341e-06 0
-0.00803215 -0.000508641 0
-0.00708132 -9.94766e-05 0
-0.00772397 0.000496961 0
-0.00830284 -0.000100064 0
-0.00758283 -0.000387032 0
-0.00733325 0.000178211 0
-0.00799447 0.000243317 0
-0.00802722 -0.000223545 0
-0.0073571 -0.000290279 0
-0.00730483 0.000200546 0
-0.0068787 -0.000533663 0
-0.00610846 -4.49257e-05 0
-0.00644527 0.000153238 0
-0.00649859 -0.000222704 0
-0.00616875 -0.000147214 0
-0.00634366 0.000108161 0
-0.00659746 -0.000114081 0
-0.00624669 -0.000303612 0
-0.00623334 0.000217867 0
-0.00632527 -0.000399486 0
-0.00422283 -0.00116326 0
-0.00226821 -0.00028731 0
-0.00171669 -0.000106118 0
-0.00100874 -0.000634748 0
-4.55127e-05 -8.27582e-05 0
-0.00246735 0.00541852 0
-0.00726594 0.00716883 0
-0.00708812 0.000766597 0
-0.0074522 -0.000639749 0
-0.00841327 -6.49131e-05 0
-0.00775975 0.000498049 0
-0.00719193 -8.49318e-05 0
-0.00790115 -0.000372573 0
-0.00816081 0.000199984 0
-0.00749074 0.000278211 0
-0.00746516 -0.000228869 0
-0.00813044 -0.000340432 0
-0.00735725 -0.000813135 0
-0.00674503 -0.000704494 0
-0.00683236 -0.000408496 0
-0.00628787 0.000274071 0
-0.00623079 -6.37443e-05 0
-0.00656727 4.68503e-06 0
-0.00638113 0.000271906 0
-0.00614212 4.54816e-05 0
-0.00647586 -7.74016e-05 0
-0.00650602 0.000249232 0
-0.00563163 -0.00188024 0
-0.00501957 -0.00271959 0
-0.00422685 -0.0022039 0
-0.00227208 -0.00112395 0
-0.00146498 -0.00145117 0
-0.000553539 -0.000908918 0
-0.000683045 0.00961615 0
-0.00125203 0.00587605 0
0 0 0
0 0 0
0 0 0
0 0 0
0 0 0
0 0 0
0 0 0
0 0 0
0 0 0
0 0 0
-0.000825998 -0.000986703 0
-0.000799251 -0.00118837 0
6.03294e-05 -0.00066488 0
0 0 0
0 0 0
0 0 0
0 0 0
0 0 0
0 0 0
0 0 0
-0.000765683 -0.00130157 0
-0.0024577 -0.00188015 0
-0.0029738 -0.00397759 0
-0.00167064 -0.00215765 0
-0.00108627 -0.00149669 0
-0.000332257 -0.00224679 0
0.00184681 0.00836354 0
0.00193556 0.0071203 0
0 0 0
0 0 0
0 0 0
0 0 0
0 0 0
0 0 0
0 0 0
0 0 0
0 0 0
0 0 0
0 0 0
-0.00066258 -0.00156993 0
-0.000635681 -0.00114067 0
0 0 0
0 0 0
0 0 0
0 0 0
0 0 0
0 0 0
0 0 0
0 0 0
-0.00166316 -0.000257568 0
-0.00391122 -0.00274272 0
-0.00356698 -0.00371514 0
-0.000961648 -0.00388268 0
0.000641675 -0.00192491 0
0.000267062 0.00497747 0
0.00030363 0.0105219 0
0 0 0
0 0 0
0 0 0
-0.000104944 2.99957e-05 0
-0.0018161 0.00115311 0
-0.00207072 -0.000896631 0
-0.00126325 0.000265205 0
-0.00215876 0.000353043 0
-0.00238347 -0.000196764 0
-0.00188477 -0.000122116 0
-0.00202541 0.000114708 0
-0.00243145 -0.000863535 0
-0.00316612 -0.00119231 0
-0.00351729 -0.000399433 0
-0.00329872 -1.77648e-05 0
-0.00397864 0.000462924 0
-0.00481131 5.97211e-05 0
-0.00426975 -0.000590024 0
-0.00330956 -0.00016866 0
-0.00418065 0.000756538 0
-0.00555086 0.000490161 0
-0.00394913 -0.000733157 0
-0.00229936 -0.000918699 0
-0.00261524 -0.00516249 0
-0.00256519 -0.00644411 0
-0.000817969 -0.0020074 0
-0.00242802 0.00815824 0
-0.00246935 0.00731543 0
0 0 0
0 0 0
0 0 0
-0.00100605 0.0018698 0
-0.000536268 0.00077398 0
-0.00100681 0.000245401 0
-0.00285715 0.000306387 0
-0.00196432 0.000445725 0
-0.00173008 -0.000207429 0
-0.00224611 -9.75996e-05 0
-0.00208127 0.00018078 0
-0.00211587 -0.000182614 0
-0.00290039 -0.000170414 0
-0.00354878 -0.000173896 0
-0.00438251 0.000844882 0
-0.00435011 0.000624046 0
-0.00348797 0.000172567 0
-0.00405596 -0.000495243 0
-0.00499264 -3.28294e-05 0
-0.00413968 0.000724452 0
-0.0027597 0.000353337 0
-0.00373882 -0.000988554 0
-0.00252245 -0.00460561 0
0.00103865 -0.00526795 0
-0.000931596 -0.00371825 0
-0.00154025 -0.00561224 0
0.000570372 0.011106 0
0.000407774 0.00427842 0
-0.000151956 0.000151919 0
0 0 0
0 0 0
0.00111419 0.0017316 0
0.000552507 0.000454552 0
-0.000451627 0.00194887 0
0 0 0
0 0 0
0 0 0
0 0 0
0 0 0
0 0 0
0 0 0
-0.000941651 0.00112197 0
-0.000885932 0.000284316 0
0 0 0
0 0 0
0 0 0
0 0 0
0 0 0
0 0 0
0 0 0
-0.00167551 -0.00669429 0
-0.00298043 -0.00501604 0
2.23478e-05 -0.00379805 0
0.00160089 -0.00555269 0
0.0028253 0.00607877 0
0.00357655 0.00916813 0
0.000512373 0.000825434 0
-0.000587461 -0.000680365 0
0 0 0
0 0 0
0.000920817 0.00235787 0
0.00112351 0.00175076 0
0 0 0
0 0 0
0 0 0
0 0 0
0 0 0
0 0 0
-0.000872027 0.00105967 0
-0.000545655 0.000702999 0
0.000392941 -0.000298977 0
0 0 0
0 0 0
0 0 0
0 0 0
0 0 0
0 0 0
-0.00138907 0.00138688 0
-0.00377423 -0.00246949 0
-0.00822088 -0.00361875 0
-0.00593655 -0.0135984 0
0.00037862 -0.00275207 0
-0.00151259 0.00381226 0
0.001057 0.00914714 0
0.00504798 0.0014515 0
0.00208966 0.00119351 0
0 0 0
0 0 0
0.000899375 0.00132604 0
0.00108174 0.00164786 0
-0.00423102 0.00380346 0
-0.00762252 -0.000202244 0
-0.00562782 -0.00103846 0
-0.00564329 0.000925846 0
-0.00767408 0.000422197 0
-0.00673841 -0.000892547 0
-0.00461257 0.00127559 0
-0.00620408 0.000752755 0
-0.00673221 -0.000787033 0
-0.00534516 0.000101942 0
-0.0071287 0.00113907 0
-0.00811498 -0.00056133 0
-0.00572528 -0.00110955 0
-0.00572321 0.00120828 0
-0.00893005 0.00122348 0
-0.00641473 -0.000345804 0
-0.00401223 0.00201718 0
-0.00964786 -0.000101128 0
-0.0127524 -0.0167166 0
-0.00522339 -0.009669 0
-0.00126435 0.00805246 0
-0.000245585 0.000358718 0
0.00115212 0.00162344 0
-8.77738e-05 0.00531388 0
0 0 0
0 0 0
0 0 0
-0.00239833 0.00639266 0
-0.00500677 0.00849335 0
-0.00538081 0.000204521 0
-0.00731291 -0.000913816 0
-0.00735717 0.000936839 0
-0.00527039 0.000394073 0
-0.00625302 -0.000958313 0
-0.00746337 0.000179457 0
-0.00513636 0.00104642 0
-0.00539629 0.000256387 0
-0.0080302 0.000355648 0
-0.00649845 0.00124476 0
-0.0054955 -0.000513458 0
-0.00791724 -0.00103138 0
-0.00787301 0.00110377 0
-0.00471924 0.00110915 0
-0.00578011 -0.00198824 0
-0.00704152 0.00170644 0
-0.00160069 -0.00191668 0
-0.00326374 -0.00802561 0
-0.00380692 -0.0234963 0
0.00169685 0.00758959 0
-0.00626724 0.00631961 0
-0.0142077 0.00183022 0
-0.00787934 0.00155418 0
-0.00105232 -0.00157469 0
0 0 0
0 0 0
0.0017054 0.00840047 0
0.00182954 0.00872245 0
0 0 0
0 0 0
0 0 0
0 0 0
0 0 0
0 0 0
0 0 0
0.00049242 0.00118977 0
0.00045488 0.000909983 0
0 0 0
0 0 0
0 0 0
0 0 0
0 0 0
0 0 0
0 0 0
-0.00134792 -0.00245165 0
0.0061367 -0.0147951 0
0.00801517 -0.0173611 0
-0.00201739 0.00777909 0
-0.0118773 0.0237751 0
-0.0117321 -0.00298041 0
-0.00502071 -0.00681111 0
-0.00276989 -0.006502 0
0 0 0
0 0 0
-0.000287482 0.00548715 0
0.00375797 0.00638686 0
0.00410212 0.00476399 0
0.000788157 0.000121545 0
0.000141424 0.000144882 0
0 0 0
0 0 0
0 0 0
0 0 0
0 0 0
0.000458958 0.00156538 0
0.000176471 0.00060638 0
-0.000544281 -5.40779e-05 0
-0.000324258 -0.000218176 0
0 0 0
0 0 0
0 0 0
0 0 0
0 0 0
-0.000811339 -0.0288058 0
-0.000434639 -0.00591059 0
-0.00641805 0.0201422 0
-0.00931706 0.0188915 0
-0.000868909 -0.00788374 0
0.00496618 -0.0104769 0
-0.00151398 -0.00110673 0
-0.00987704 -0.000552061 0
-0.00505846 -0.00250202 0
-0.000681004 0.00419983 0
-0.0029461 0.00673606 0
-0.000406439 0.00277248 0
0.00463315 0.00106191 0
0.00186884 0.00184728 0
0.00153777 -0.00102754 0
0.0047116 -0.000929961 0
0.00377957 0.00165832 0
0.000741825 0.000479494 0
0.00284618 -0.00155489 0
0.00589917 0.00138296 0
0.00266094 0.00315868 0
0.00116827 -0.00115165 0
0.00650699 -0.00261845 0
0.00627104 0.0024411 0
-5.35636e-05 0.00157751 0
0.00321674 -0.00377211 0
0.0091331 4.4757e-05 0
0.00252221 0.00434586 0
-0.0110608 -0.0174172 0
-0.00809403 -0.0184584 0
0.0232786 0.0150229 0
0.0503333 0.00324612 0
0.0490286 -0.00411146 0
0.0353693 -0.00515582 0
0.0341407 0.00397674 0
0.0386997 -0.000717936 0
0.0338944 -0.00271332 0
0.0316967 0.00119463 0
0.0396167 0.00394196 0
0.0421841 -0.00219781 0
0.0405212 0.000799382 0
0.0438659 0.00142584 0
0.0443846 -0.00118083 0
0.0412014 -0.00103547 0
0.0421314 0.00158858 0
0.0451756 0.000293893 0
0.0430712 -0.00178721 0
0.0409209 0.000296145 0
0.0451487 0.00243984 0
0.0473812 -0.00119896 0
0.0418061 -0.00255009 0
0.0417202 0.00249644 0
0.0480635 0.00154253 0
0.0447815 -0.00392117 0
0.0388577 6.84925e-05 0
0.0454787 0.00427218 0
0.0489374 -0.00210153 0
0.0236644 -0.015327 0

