# vtk DataFile Version 4.0
SiwiRVisFile
ASCII
DATASET STRUCTURED_POINTS
DIMENSIONS 28 14 1
ORIGIN 0 0 0
SPACING 1 1 1
POINT_DATA 392

SCALARS flags double 1
LOOKUP_TABLE default
1
1
1
1
1
1
1
1
1
1
1
1
1
1
1
1
1
1
1
1
1
1
1
1
1
1
1
1
1
1
1
1
1
1
1
1
1
1
1
1
1
1
1
1
1
1
1
1
1
1
1
1
1
1
1
1
1
1
1
1
1
1
1
1
1
1
1
1
1
1
1
1
1
1
1
1
1
1
1
1
1
1
1
1
1
1
1
1
1
1
1
1
1
1
1
1
1
1
1
1
1
1
1
1
1
1
1
1
1
1
1
1
1
1
1
1
1
1
1
1
1
1
1
1
1
1
1
1
1
1
1
1
1
1
1
1
1
1
1
1
1
1
1
1
1
1
1
1
1
1
1
1
1
1
1
1
1
1
1
1
1
1
1
1
1
1
1
1
1
1
1
1
1
1
1
1
1
1
1
1
1
1
1
1
1
1
1
1
1
1
1
1
1
1
1
1
1
1
1
1
1
1
1
1
1
1
1
1
1
1
1
1
1
1
1
1
1
1
1
1
1
1
1
1
1
1
1
1
1
1
1
1
1
1
1
1
1
1
1
1
1
1
1
1
1
1
1
1
1
1
1
1
1
1
1
1
1
1
1
1
1
1
1
1
1
1
1
1
1
1
1
1
1
1
1
1
1
1
1
1
1
1
1
1
1
1
1
1
1
1
1
1
1
1
1
1
1
1
1
1
1
1
1
1
1
1
1
1
1
1
1
1
1
1
1
1
1
1
1
1
1
1
1
1
1
1
1
1
1
1
1
1
1
1
1
1
1
1
1
1
1
1
1
1
1
1
1
1
1
1
1
1
1
1
1
1
1
1
1
1
1
1
1
1
1
1
1
1
1
1
1
1
1
1
1
1
1
1
1
1
1
1
1
1
1
1
1
1
1
1
1
1

SCALARS density double 1
LOOKUP_TABLE default
0.987837
0.980741
0.979945
0.998752
0.998193
0.998091
0.998056
1.00046
1.00123
1.00056
1.00299
1.00558
1.00504
1.00505
1.00609
1.00603
1.00589
1.00715
1.00827
1.00903
1.0077
1.01236
1.01751
1.01487
1.01086
1.01578
1.01794
1.01194
0.98499
0.978596
0.982713
0.999478
0.995625
0.998557
0.999981
0.999238
1.00016
1.00209
1.00317
1.00414
1.00565
1.00586
1.00549
1.00543
1.00654
1.00761
1.00753
1.0087
1.00858
1.01253
1.01632
1.01494
1.01259
1.01485
1.01637
1.01367
0.976575
0.987046
0
0
0
0
0
0
0
0
0
0
1.00563
1.00562
1.00535
0
0
0
0
0
0
0
1.01031
1.01375
1.01927
1.01328
1.01036
1.01775
0.96728
0.969727
0
0
0
0
0
0
0
0
0
0
0
1.0057
1.00553
0
0
0
0
0
0
0
0
1.01449
1.01467
1.01475
1.01438
1.01424
0.975276
0.961985
0
0
0
1.00497
0.999898
1.00525
1.00813
1.00488
1.00456
1.00778
1.00848
1.00463
1.00506
1.00918
1.00724
1.00435
1.00936
1.01207
1.00757
1.01142
1.01829
1.01538
1.00937
1.01605
1.0194
1.01114
0.967623
0.970605
0
0
0
0.999851
1.00526
1.00733
1.00279
1.00486
1.00955
1.00598
1.00432
1.00793
1.00797
1.0047
1.00623
1.00942
1.00794
1.00743
1.01133
1.01471
1.01259
1.01418
1.01626
1.01386
1.01308
1.01678
0.963582
0.977937
0.972023
0
0
1.00485
1.00867
1.00158
0
0
0
0
0
0
0
1.00505
1.00647
0
0
0
0
0
0
0
1.02041
1.01332
1.00939
1.01781
0.974026
0.964259
0.966783
0.974568
0
0
1.00005
1.00125
0
0
0
0
0
0
1.00653
1.00688
1.00508
0
0
0
0
0
0
1.01408
1.01082
1.01619
1.01872
1.00993
0.973716
0.961014
0.9668
0.978223
0
0
0.996096
1.00292
1.00182
0.990927
0.999168
1.00535
1.00392
1.0035
1.00609
1.00759
1.00597
1.0038
1.00691
1.00977
1.00581
1.01013
1.01637
1.0159
1.00977
1.0149
1.01932
1.01215
0.961589
0.978468
0.972382
0.958973
0
0
0
0.996972
0.998988
0.996392
1.00009
1.00052
1.00418
1.00773
1.00508
1.00388
1.00722
1.00806
1.00414
1.00556
1.0106
1.01352
1.00936
1.0143
1.01943
1.012
1.00765
1.02262
0.967478
0.974914
0.969879
0.963235
0.970717
0
0
0.990961
0.992572
0
0
0
0
0
0
0
1.00481
1.00747
0
0
0
0
0
0
0
1.01482
1.00978
1.01647
0.977689
0.953838
0.965032
0.983718
0.968654
0
0
0.986475
0.982933
0.99325
0.993797
0.986779
0
0
0
0
0
1.00059
1.00534
1.00555
1.00182
0
0
0
0
0
1.02901
1.0045
0.964472
0.966978
0.969561
0.969652
0.969146
0.976515
0.985331
0.989371
0.989071
0.989104
0.987754
0.993754
0.994295
0.99389
0.995289
1.00081
1.00148
1.00028
1.00451
1.00668
1.00177
1.00409
1.01437
1.01002
1.00362
1.0192
1.01199
1.0119
0.958419
0.984727
0.971799
0.957447
0.973089
0.982218
0.980327
0.988058
0.992793
0.987127
0.988006
0.994347
0.992991
0.995489
0.996169
0.997026
1.00262
1.0053
1.00013
1.0016
1.01062
1.0069
1.00093
1.01281
1.01989
1.00768
0.996524
1.03471

VECTORS velocity double
-0.000510482 0.000516945 0
-0.00553103 0.00240302 0
-0.00840344 4.31924e-06 0
-0.00803458 -0.000506991 0
-0.00707875 -9.50148e-05 0
-0.00772679 0.000500034 0
-0.00830006 -9.33295e-05 0
-0.00758545 -0.000380457 0
-0.00733096 0.000188761 0
-0.00799654 0.00025515 0
-0.00802542 -0.000206939 0
-0.00735844 -0.00027036 0
-0.00730407 0.000224662 0
-0.00687893 -0.000503864 0
-0.00610941 -7.20664e-06 0
-0.00644374 0.000204541 0
-0.00649978 -0.000156981 0
-0.00616649 -7.2465e-05 0
-0.00634705 0.000183979 0
-0.00659278 -3.17001e-05 0
-0.00625095 -0.00022366 0
-0.00622963 0.000295406 0
-0.00632755 -0.000326097 0
-0.00421857 -0.00108833 0
-0.00227371 -0.000222407 0
-0.00171291 -4.48345e-05 0
-0.00101167 -0.000573537 0
-4.30102e-05 -2.34239e-05 0
-0.00246439 0.00541851 0
-0.00726828 0.00716855 0
-0.00708608 0.000764773 0
-0.00745451 -0.000641217 0
-0.00841067 -6.93656e-05 0
-0.00776245 0.000494794 0
-0.00718926 -9.15978e-05 0
-0.00790386 -0.00037888 0
-0.00815832 0.000189247 0
-0.0074928 0.000266074 0
-0.00746385 -0.000245184 0
-0.00813092 -0.000359984 0
-0.00735786 -0.000836533 0
-0.00674469 -0.000732528 0
-0.00683271 -0.000443893 0
-0.00628744 0.000222802 0
-0.00623139 -0.000128093 0
-0.00656468 -6.95249e-05 0
-0.006384 0.000194718 0
-0.00613846 -3.67202e-05 0
-0.00648007 -0.000155778 0
-0.00650157 0.000171262 0
-0.00563602 -0.00194982 0
-0.0050159 -0.00278528 0
-0.00423052 -0.00226459 0
-0.0022692 -0.00118116 0
-0.00146735 -0.00150667 0
-0.000551525 -0.000964879 0
-0.000680691 0.00961536 0
-0.00125423 0.00587596 0
0 0 0
0 0 0
0 0 0
0 0 0
0 0 0
0 0 0
0 0 0
0 0 0
0 0 0
0 0 0
-0.000827231 -0.000965486 0
-0.000796544 -0.00116391 0
5.70605e-05 -0.000634663 0
0 0 0
0 0 0
0 0 0
0 0 0
0 0 0
0 0 0
0 0 0
-0.000767522 -0.00123609 0
-0.00245514 -0.00182394 0
-0.00297542 -0.00392582 0
-0.00166869 -0.00210905 0
-0.00108845 -0.00144943 0
-0.000330519 -0.00219948 0
0.00184866 0.00836546 0
0.00193334 0.00712155 0
0 0 0
0 0 0
0 0 0
0 0 0
0 0 0
0 0 0
0 0 0
0 0 0
0 0 0
0 0 0
0 0 0
-0.000658398 -0.00159064 0
-0.000639814 -0.00116412 0
0 0 0
0 0 0
0 0 0
0 0 0
0 0 0
0 0 0
0 0 0
0 0 0
-0.00166382 -0.000306744 0
-0.00391134 -0.00278362 0
-0.00356665 -0.00375225 0
-0.000961227 -0.00391962 0
0.000640062 -0.00196073 0
0.000267459 0.00497393 0
0.000303124 0.0105178 0
0 0 0
0 0 0
0 0 0
-0.000106975 2.58601e-05 0
-0.00181455 0.00114918 0
-0.00207184 -0.000899535 0
-0.00126301 0.000263425 0
-0.00215743 0.00035592 0
-0.00238674 -0.000193685 0
-0.00187943 -0.000112167 0
-0.00203195 0.000126798 0
-0.00242399 -0.00084417 0
-0.00317398 -0.00117374 0
-0.00350956 -0.00038178 0
-0.00330735 1.11589e-06 0
-0.00397027 0.000493768 0
-0.00481827 0.000101639 0
-0.00426274 -0.00053856 0
-0.00331563 -0.000117012 0
-0.00417719 0.000805915 0
-0.00555084 0.000541116 0
-0.00394976 -0.000690696 0
-0.00229682 -0.000886128 0
-0.002618 -0.00513786 0
-0.00256356 -0.00642046 0
-0.00081779 -0.00198352 0
-0.00243251 0.00816323 0
-0.00246559 0.00732358 0
0 0 0
0 0 0
0 0 0
-0.00100781 0.00187389 0
-0.000535254 0.00077831 0
-0.00100738 0.000248939 0
-0.00285719 0.000307987 0
-0.00196289 0.000442774 0
-0.0017333 -0.000210467 0
-0.00224107 -0.000107263 0
-0.002088 0.000169315 0
-0.00210754 -0.000201587 0
-0.00291005 -0.000186938 0
-0.00353981 -0.000189026 0
-0.0043906 0.000827533 0
-0.00434276 0.000592437 0
-0.0034942 0.000130588 0
-0.00405025 -0.000544009 0
-0.00499678 -8.38882e-05 0
-0.00413582 0.000671398 0
-0.00276164 0.000301295 0
-0.00374092 -0.00102448 0
-0.00252036 -0.00462891 0
0.00103459 -0.00528151 0
-0.000925593 -0.00372937 0
-0.00154702 -0.00562331 0
0.000573357 0.0110978 0
0.000406456 0.00426752 0
-0.00015386 0.000128753 0
0 0 0
0 0 0
0.00111481 0.0017275 0
0.000551614 0.000450064 0
-0.000450082 0.00194405 0
0 0 0
0 0 0
0 0 0
0 0 0
0 0 0
0 0 0
0 0 0
-0.00092953 0.00113411 0
-0.00089668 0.000298045 0
0 0 0
0 0 0
0 0 0
0 0 0
0 0 0
0 0 0
0 0 0
-0.00166396 -0.00668182 0
-0.00298865 -0.00501183 0
2.74181e-05 -0.00379875 0
0.00159731 -0.00555285 0
0.00282781 0.0060914 0
0.00357353 0.00918204 0
0.000516851 0.000850096 0
-0.000592034 -0.00064227 0
0 0 0
0 0 0
0.000913148 0.00236325 0
0.00113188 0.00175608 0
0 0 0
0 0 0
0 0 0
0 0 0
0 0 0
0 0 0
-0.000881138 0.00105049 0
-0.000538184 0.000693548 0
0.000386006 -0.000307086 0
0 0 0
0 0 0
0 0 0
0 0 0
0 0 0
0 0 0
-0.00140092 0.00137551 0
-0.0037644 -0.00247384 0
-0.00823011 -0.00361513 0
-0.00592606 -0.0135883 0
0.000366957 -0.00274138 0
-0.00150484 0.00379736 0
0.00105104 0.00912487 0
0.00505442 0.00142171 0
0.00208377 0.00115423 0
0 0 0
0 0 0
0.000885271 0.00131865 0
0.00109687 0.00164309 0
-0.00424749 0.00379986 0
-0.00760682 -0.000199695 0
-0.00564285 -0.00103732 0
-0.00562849 0.00093792 0
-0.007687 0.00042659 0
-0.00672825 -0.000882926 0
-0.00461982 0.00128421 0
-0.00619897 0.000760117 0
-0.00673524 -0.000784033 0
-0.0053453 0.000106314 0
-0.00712503 0.00114776 0
-0.00812152 -0.000543892 0
-0.00571485 -0.00108127 0
-0.00573758 0.00121987 0
-0.0089154 0.00123987 0
-0.00642728 -0.000337854 0
-0.0039985 0.00201804 0
-0.00966163 -0.000111151 0
-0.0127445 -0.0167289 0
-0.00522509 -0.00969252 0
-0.00126161 0.00806973 0
-0.00025331 0.000387133 0
0.00116425 0.00166008 0
-9.57367e-05 0.00536226 0
0 0 0
0 0 0
0 0 0
-0.00237241 0.00639892 0
-0.00502734 0.00849767 0
-0.00536452 0.000204101 0
-0.00732753 -0.000913933 0
-0.00734284 0.000923612 0
-0.00528327 0.000388918 0
-0.00624314 -0.000967435 0
-0.0074691 0.000171194 0
-0.00513457 0.00104063 0
-0.0053966 0.000256588 0
-0.00803099 0.000355631 0
-0.00649644 0.00123738 0
-0.00550089 -0.000528796 0
-0.0079067 -0.00105738 0
-0.00788465 0.00109069 0
-0.00470629 0.0010906 0
-0.00579397 -0.00199281 0
-0.0070303 0.00170602 0
-0.0016126 -0.00190101 0
-0.00324564 -0.00801035 0
-0.00382795 -0.0234721 0
0.00172932 0.00756558 0
-0.00628979 0.00629176 0
-0.0141996 0.00178771 0
-0.0078836 0.00149792 0
-0.00104385 -0.00163855 0
0 0 0
0 0 0
0.00172925 0.00838489 0
0.00181103 0.00870774 0
0 0 0
0 0 0
0 0 0
0 0 0
0 0 0
0 0 0
0 0 0
0.00049275 0.00118815 0
0.000457267 0.000897161 0
0 0 0
0 0 0
0 0 0
0 0 0
0 0 0
0 0 0
0 0 0
-0.001372 -0.00247189 0
0.00614603 -0.0148159 0
0.00800696 -0.0173769 0
-0.00199761 0.00780972 0
-0.0118847 0.0238083 0
-0.0117227 -0.00292406 0
-0.00502296 -0.00676041 0
-0.0027591 -0.00645919 0
0 0 0
0 0 0
-0.000263124 0.00551805 0
0.00374364 0.00641857 0
0.00412231 0.00480516 0
0.000766176 0.000160962 0
0.000170868 0.000180017 0
0 0 0
0 0 0
0 0 0
0 0 0
0 0 0
0.000474137 0.00159897 0
0.000177499 0.000658027 0
-0.00054987 1.99196e-06 0
-0.000309138 -0.00017824 0
0 0 0
0 0 0
0 0 0
0 0 0
0 0 0
-0.000787024 -0.0287805 0
-0.00045202 -0.00588621 0
-0.00636307 0.0201005 0
-0.00932896 0.0188293 0
-0.000865633 -0.00794415 0
0.0049737 -0.0105165 0
-0.00152284 -0.00113812 0
-0.00987301 -0.00057854 0
-0.00507188 -0.00255856 0
-0.000666785 0.00415726 0
-0.00295765 0.00669019 0
-0.000391824 0.00272579 0
0.00462577 0.00101623 0
0.0018743 0.00181067 0
0.00153262 -0.00106226 0
0.00471059 -0.000974442 0
0.0037837 0.00162039 0
0.000735361 0.000428221 0
0.00284628 -0.00160781 0
0.00589918 0.00133317 0
0.00266856 0.00310412 0
0.00116696 -0.00121047 0
0.00650765 -0.0026565 0
0.00627457 0.00241088 0
-6.32566e-05 0.00153907 0
0.00321509 -0.00384366 0
0.00914846 1.57037e-05 0
0.00250501 0.00429504 0
-0.0110525 -0.0174447 0
-0.00808618 -0.018488 0
0.0232914 0.0151117 0
0.0503459 0.00331923 0
0.0490261 -0.00406499 0
0.0353613 -0.00512384 0
0.0341473 0.00402277 0
0.0386957 -0.000685731 0
0.0338951 -0.0026687 0
0.0316933 0.00124135 0
0.0396222 0.00400057 0
0.0421821 -0.00215195 0
0.0405226 0.000854517 0
0.0438673 0.00147206 0
0.0443813 -0.00114499 0
0.0412032 -0.000991227 0
0.0421298 0.0016355 0
0.0451785 0.00034346 0
0.0430674 -0.00174619 0
0.0409219 0.000349809 0
0.0451526 0.00250304 0
0.0473823 -0.00114424 0
0.0418002 -0.00251237 0
0.0417245 0.00254202 0
0.0480625 0.00158854 0
0.0447841 -0.00387392 0
0.0388504 0.000102409 0
0.0454941 0.0043289 0
0.0489334 -0.00207621 0
0.0236034 -0.0152894 0

