# vtk DataFile Version 4.0
SiwiRVisFile
ASCII
DATASET STRUCTURED_POINTS
DIMENSIONS 28 14 1
ORIGIN 0 0 0
SPACING 1 1 1
POINT_DATA 392

SCALARS flags double 1
LOOKUP_TABLE default
1
1
1
1
1
1
1
1
1
1
1
1
1
1
1
1
1
1
1
1
1
1
1
1
1
1
1
1
1
1
1
1
1
1
1
1
1
1
1
1
1
1
1
1
1
1
1
1
1
1
1
1
1
1
1
1
1
1
1
1
1
1
1
1
1
1
1
1
1
1
1
1
1
1
1
1
1
1
1
1
1
1
1
1
1
1
1
1
1
1
1
1
1
1
1
1
1
1
1
1
1
1
1
1
1
1
1
1
1
1
1
1
1
1
1
1
1
1
1
1
1
1
1
1
1
1
1
1
1
1
1
1
1
1
1
1
1
1
1
1
1
1
1
1
1
1
1
1
1
1
1
1
1
1
1
1
1
1
1
1
1
1
1
1
1
1
1
1
1
1
1
1
1
1
1
1
1
1
1
1
1
1
1
1
1
1
1
1
1
1
1
1
1
1
1
1
1
1
1
1
1
1
1
1
1
1
1
1
1
1
1
1
1
1
1
1
1
1
1
1
1
1
1
1
1
1
1
1
1
1
1
1
1
1
1
1
1
1
1
1
1
1
1
1
1
1
1
1
1
1
1
1
1
1
1
1
1
1
1
1
1
1
1
1
1
1
1
1
1
1
1
1
1
1
1
1
1
1
1
1
1
1
1
1
1
1
1
1
1
1
1
1
1
1
1
1
1
1
1
1
1
1
1
1
1
1
1
1
1
1
1
1
1
1
1
1
1
1
1
1
1
1
1
1
1
1
1
1
1
1
1
1
1
1
1
1
1
1
1
1
1
1
1
1
1
1
1
1
1
1
1
1
1
1
1
1
1
1
1
1
1
1
1
1
1
1
1
1
1
1
1
1
1
1
1
1
1
1
1
1
1
1
1
1
1
1
1
1
1
1
1
1

SCALARS density double 1
LOOKUP_TABLE default
0.987837
0.980741
0.979945
0.998752
0.998193
0.998091
0.998056
1.00046
1.00123
1.00056
1.00299
1.00558
1.00504
1.00505
1.00609
1.00603
1.00589
1.00715
1.00827
1.00903
1.0077
1.01236
1.01751
1.01487
1.01086
1.01578
1.01794
1.01194
0.98499
0.978596
0.982713
0.999477
0.995625
0.998557
0.999981
0.999237
1.00016
1.00209
1.00317
1.00414
1.00565
1.00586
1.00549
1.00543
1.00654
1.00761
1.00753
1.0087
1.00858
1.01253
1.01631
1.01494
1.01259
1.01485
1.01637
1.01367
0.976575
0.987046
0
0
0
0
0
0
0
0
0
0
1.00563
1.00562
1.00535
0
0
0
0
0
0
0
1.01031
1.01375
1.01927
1.01329
1.01036
1.01775
0.96728
0.969728
0
0
0
0
0
0
0
0
0
0
0
1.0057
1.00553
0
0
0
0
0
0
0
0
1.01449
1.01467
1.01475
1.01437
1.01424
0.975276
0.961985
0
0
0
1.00497
0.999898
1.00525
1.00813
1.00488
1.00456
1.00778
1.00848
1.00463
1.00506
1.00918
1.00724
1.00435
1.00936
1.01207
1.00757
1.01142
1.01829
1.01538
1.00937
1.01605
1.0194
1.01114
0.967623
0.970605
0
0
0
0.999851
1.00526
1.00733
1.00279
1.00486
1.00955
1.00598
1.00432
1.00793
1.00797
1.0047
1.00623
1.00942
1.00794
1.00743
1.01133
1.01471
1.01259
1.01418
1.01626
1.01386
1.01308
1.01678
0.963582
0.977937
0.972023
0
0
1.00485
1.00867
1.00158
0
0
0
0
0
0
0
1.00505
1.00647
0
0
0
0
0
0
0
1.02041
1.01332
1.00939
1.01781
0.974026
0.964259
0.966784
0.974569
0
0
1.00005
1.00125
0
0
0
0
0
0
1.00653
1.00688
1.00508
0
0
0
0
0
0
1.01408
1.01082
1.01619
1.01872
1.00993
0.973717
0.961014
0.9668
0.978223
0
0
0.996096
1.00292
1.00182
0.990927
0.999168
1.00535
1.00392
1.00351
1.00609
1.00759
1.00597
1.0038
1.00691
1.00977
1.00581
1.01013
1.01637
1.0159
1.00978
1.0149
1.01932
1.01215
0.961589
0.978468
0.972381
0.958973
0
0
0
0.996972
0.998988
0.996392
1.00009
1.00052
1.00418
1.00773
1.00508
1.00388
1.00722
1.00806
1.00414
1.00556
1.0106
1.01352
1.00936
1.01429
1.01943
1.01199
1.00765
1.02262
0.967478
0.974915
0.969879
0.963235
0.970717
0
0
0.990961
0.992572
0
0
0
0
0
0
0
1.00481
1.00747
0
0
0
0
0
0
0
1.01482
1.00978
1.01646
0.977689
0.953835
0.965034
0.983719
0.968654
0
0
0.986475
0.982933
0.99325
0.993797
0.986779
0
0
0
0
0
1.00059
1.00534
1.00555
1.00182
0
0
0
0
0
1.02901
1.00451
0.964473
0.966982
0.969559
0.969652
0.969146
0.976515
0.985332
0.989371
0.989071
0.989104
0.987754
0.993753
0.994295
0.99389
0.995289
1.00081
1.00148
1.00028
1.00451
1.00668
1.00177
1.00409
1.01437
1.01002
1.00362
1.01921
1.01199
1.01189
0.958418
0.984726
0.9718
0.957448
0.973088
0.982219
0.980326
0.988058
0.992792
0.987127
0.988006
0.994348
0.992991
0.995489
0.996169
0.997026
1.00262
1.0053
1.00013
1.0016
1.01062
1.0069
1.00094
1.01279
1.01991
1.00766
0.99654
1.0347

VECTORS velocity double
-0.000510166 0.000517653 0
-0.00553119 0.00240335 0
-0.00840344 4.16525e-06 0
-0.00803445 -0.000507526 0
-0.007079 -9.55494e-05 0
-0.00772631 0.000500258 0
-0.00830072 -9.33794e-05 0
-0.0075845 -0.000379497 0
-0.00733218 0.000188842 0
-0.00799495 0.000256452 0
-0.00802727 -0.000207493 0
-0.00735618 -0.000269852 0
-0.00730644 0.000222399 0
-0.00687606 -0.000507181 0
-0.00611218 -1.65435e-05 0
-0.00644023 0.000189324 0
-0.00650407 -0.000186116 0
-0.00616136 -0.000109582 0
-0.00635265 0.000130385 0
-0.0065875 -9.38455e-05 0
-0.0062573 -0.000299866 0
-0.00622307 0.000221234 0
-0.00633355 -0.000408501 0
-0.00421619 -0.00118401 0
-0.00227486 -0.000327332 0
-0.00171087 -0.000163957 0
-0.00101549 -0.000698324 0
-3.57585e-05 -0.000135279 0
-0.00246415 0.00541759 0
-0.00726851 0.00716786 0
-0.00708596 0.000764857 0
-0.0074545 -0.000640761 0
-0.00841091 -6.88343e-05 0
-0.00776196 0.000494569 0
-0.00718993 -9.1556e-05 0
-0.0079029 -0.000379815 0
-0.00815951 0.000189164 0
-0.00749118 0.000264759 0
-0.0074659 -0.000244607 0
-0.00812847 -0.00036024 0
-0.00736014 -0.000834892 0
-0.00674185 -0.000729201 0
-0.00683541 -0.000436067 0
-0.00628418 0.000238391 0
-0.00623543 -9.93874e-05 0
-0.00655979 -3.2675e-05 0
-0.00639003 0.00024923 0
-0.00613232 2.53019e-05 0
-0.00648632 -8.10148e-05 0
-0.00649626 0.000246385 0
-0.00563995 -0.0018716 0
-0.0050143 -0.00269654 0
-0.00423204 -0.00215937 0
-0.00226751 -0.00106103 0
-0.00146731 -0.00138308 0
-0.000555462 -0.000846053 0
-0.000680402 0.00961713 0
-0.00125454 0.00587755 0
0 0 0
0 0 0
0 0 0
0 0 0
0 0 0
0 0 0
0 0 0
0 0 0
0 0 0
0 0 0
-0.000829952 -0.000965974 0
-0.000793872 -0.00116668 0
5.38619e-05 -0.000639734 0
0 0 0
0 0 0
0 0 0
0 0 0
0 0 0
0 0 0
0 0 0
-0.000767883 -0.00130863 0
-0.00245635 -0.001905 0
-0.00297037 -0.00402746 0
-0.00167611 -0.00223021 0
-0.00108393 -0.00157788 0
-0.000327484 -0.00232512 0
0.00184871 0.0083614 0
0.00193325 0.00711814 0
0 0 0
0 0 0
0 0 0
0 0 0
0 0 0
0 0 0
0 0 0
0 0 0
0 0 0
0 0 0
0 0 0
-0.000654845 -0.00158877 0
-0.00064336 -0.00116084 0
0 0 0
0 0 0
0 0 0
0 0 0
0 0 0
0 0 0
0 0 0
0 0 0
-0.00167689 -0.000229777 0
-0.00389569 -0.00268974 0
-0.00358465 -0.00363189 0
-0.000940505 -0.00378619 0
0.000614546 -0.00182937 0
0.000268986 0.0049811 0
0.000301761 0.010526 0
0 0 0
0 0 0
0 0 0
-0.000104472 2.90758e-05 0
-0.00181717 0.00115218 0
-0.00206904 -0.000896202 0
-0.00126609 0.000264824 0
-0.00215388 0.000357279 0
-0.00239103 -0.000194345 0
-0.00187403 -0.000110789 0
-0.00203847 0.000124695 0
-0.002417 -0.000844909 0
-0.00318026 -0.00117708 0
-0.00350373 -0.000391678 0
-0.00331253 -1.3917e-05 0
-0.00396708 0.000470954 0
-0.00481713 7.44441e-05 0
-0.00427102 -0.000582491 0
-0.00329882 -0.000154986 0
-0.00420313 0.000744463 0
-0.0055196 0.000489809 0
-0.00398231 -0.000763096 0
-0.00226583 -0.00097847 0
-0.00265027 -0.0052505 0
-0.00253629 -0.00654092 0
-0.000838598 -0.0021237 0
-0.00242154 0.00815369 0
-0.00247472 0.00730823 0
0 0 0
0 0 0
0 0 0
-0.0010044 0.00187033 0
-0.000538807 0.00077494 0
-0.00100387 0.000245843 0
-0.00286038 0.000306306 0
-0.00195958 0.000441292 0
-0.00173754 -0.000209846 0
-0.00223561 -0.000108618 0
-0.00209479 0.000171449 0
-0.00209927 -0.000201503 0
-0.00291882 -0.000182791 0
-0.00353196 -0.000180526 0
-0.0043961 0.000844191 0
-0.00434032 0.000615714 0
-0.00349254 0.000158125 0
-0.00405782 -0.000502251 0
-0.00498142 -4.63115e-05 0
-0.00416293 0.000736079 0
-0.00272057 0.00035017 0
-0.00378539 -0.000963223 0
-0.00247738 -0.00454105 0
0.000988993 -0.00518369 0
-0.000873934 -0.003624 0
-0.00160338 -0.00549045 0
0.000569832 0.0111129 0
0.00040666 0.00428794 0
-0.000148096 0.000171984 0
0 0 0
0 0 0
0.00111982 0.00173149 0
0.000545882 0.000454298 0
-0.000443854 0.00194758 0
0 0 0
0 0 0
0 0 0
0 0 0
0 0 0
0 0 0
0 0 0
-0.000924298 0.00112882 0
-0.000898694 0.000277788 0
0 0 0
0 0 0
0 0 0
0 0 0
0 0 0
0 0 0
0 0 0
-0.00160544 -0.00675358 0
-0.00304677 -0.00508849 0
6.51481e-05 -0.00388318 0
0.0015635 -0.00564541 0
0.00282505 0.00606804 0
0.0035767 0.00915613 0
0.000511157 0.000804019 0
-0.000586041 -0.00071317 0
0 0 0
0 0 0
0.000899638 0.00235808 0
0.00114623 0.00174965 0
0 0 0
0 0 0
0 0 0
0 0 0
0 0 0
0 0 0
-0.000876082 0.00105709 0
-0.000551914 0.00070138 0
0.000409585 -0.000291324 0
0 0 0
0 0 0
0 0 0
0 0 0
0 0 0
0 0 0
-0.00147641 0.00140802 0
-0.00369731 -0.00240428 0
-0.00826039 -0.00357432 0
-0.00593616 -0.0135384 0
0.000394386 -0.00269161 0
-0.00151622 0.00382522 0
0.00105943 0.00916637 0
0.00504546 0.0014774 0
0.00209092 0.0012279 0
0 0 0
0 0 0
0.000868003 0.00132403 0
0.00111493 0.00165471 0
-0.00426844 0.0038073 0
-0.00758308 -0.000188527 0
-0.00566671 -0.0010473 0
-0.00560769 0.000943055 0
-0.00769759 0.000423282 0
-0.00673194 -0.000891871 0
-0.00460218 0.00128418 0
-0.00622875 0.000747137 0
-0.00669378 -0.00079199 0
-0.00540458 7.31327e-05 0
-0.00703481 0.00114639 0
-0.00823774 -0.000642621 0
-0.00558787 -0.00106644 0
-0.00585718 0.00114856 0
-0.00883224 0.00120914 0
-0.00646032 -0.000364518 0
-0.00401639 0.00194919 0
-0.00959375 -0.000134766 0
-0.0128336 -0.0167196 0
-0.00516565 -0.00966315 0
-0.00126331 0.00803747 0
-0.000241786 0.000333948 0
0.00114441 0.00159155 0
-8.35664e-05 0.00527097 0
0 0 0
0 0 0
0 0 0
-0.00235596 0.00638275 0
-0.00504574 0.00848388 0
-0.00534279 0.000192691 0
-0.00735171 -0.000904247 0
-0.00732231 0.000917765 0
-0.00529495 0.000392436 0
-0.00624686 -0.000958421 0
-0.00744439 0.000163945 0
-0.00518088 0.00105848 0
-0.00533182 0.00026579 0
-0.0081024 0.000376266 0
-0.00641291 0.00124978 0
-0.00561428 -0.000433894 0
-0.00777862 -0.00107716 0
-0.00799526 0.00117232 0
-0.00463676 0.00112394 0
-0.00578955 -0.00197951 0
-0.00711683 0.00178226 0
-0.00144034 -0.00188918 0
-0.00347494 -0.00807317 0
-0.00361887 -0.0235325 0
0.00167105 0.00761026 0
-0.00624997 0.00634389 0
-0.0142132 0.00186766 0
-0.00787608 0.0016038 0
-0.00105919 -0.00151617 0
0 0 0
0 0 0
0.0017313 0.00841484 0
0.00179308 0.00874451 0
0 0 0
0 0 0
0 0 0
0 0 0
0 0 0
0 0 0
0 0 0
0.000563842 0.0011708 0
0.000380552 0.000900976 0
0 0 0
0 0 0
0 0 0
0 0 0
0 0 0
0 0 0
0 0 0
-0.0012107 -0.00247191 0
0.00594388 -0.014737 0
0.00843134 -0.0173651 0
-0.00203253 0.00775274 0
-0.011872 0.0237462 0
-0.0117402 -0.00302977 0
-0.00501772 -0.0068558 0
-0.00278092 -0.00654119 0
0 0 0
0 0 0
-0.000283975 0.00545752 0
0.00374496 0.00634731 0
0.00411157 0.00473002 0
0.000782133 9.03847e-05 0
0.000139134 0.000123934 0
0 0 0
0 0 0
0 0 0
0 0 0
0 0 0
0.000471785 0.00156183 0
0.000176129 0.000654782 0
-0.000544826 -3.81416e-05 0
-0.000320686 -9.90045e-05 0
0 0 0
0 0 0
0 0 0
0 0 0
0 0 0
-0.000964472 -0.0288186 0
-0.000218408 -0.00605236 0
-0.00646441 0.0201774 0
-0.00930709 0.0189448 0
-0.000871766 -0.00783147 0
0.00496005 -0.0104416 0
-0.00150818 -0.00107869 0
-0.00987657 -0.000529245 0
-0.00505322 -0.00245661 0
-0.00068137 0.00424295 0
-0.00295227 0.00678778 0
-0.000405926 0.0028165 0
0.0046238 0.001103 0
0.0018852 0.00187276 0
0.00151815 -0.00101553 0
0.0047496 -0.000866396 0
0.00371921 0.00166622 0
0.000810068 0.000540123 0
0.00277656 -0.00158019 0
0.00595896 0.00140274 0
0.00260898 0.003117 0
0.00122342 -0.00115475 0
0.00644713 -0.0027585 0
0.00637751 0.00258078 0
-0.000201571 0.00130913 0
0.00337692 -0.00337353 0
0.00893237 -0.000307498 0
0.00269679 0.00442158 0
-0.0110511 -0.0175181 0
-0.00821817 -0.018198 0
0.0232685 0.0149484 0
0.050322 0.00318344 0
0.049031 -0.0041515 0
0.035376 -0.00518437 0
0.034135 0.00393726 0
0.0387037 -0.000745352 0
0.0338942 -0.00275046 0
0.0317012 0.00114401 0
0.0396066 0.00387933 0
0.0421904 -0.0022436 0
0.040515 0.000752054 0
0.0438707 0.00139295 0
0.0443844 -0.00119992 0
0.041196 -0.0010899 0
0.0421384 0.00157451 0
0.0451638 0.000248648 0
0.0430873 -0.00176859 0
0.0409002 0.000275416 0
0.0451711 0.00247844 0
0.0473599 -0.00118341 0
0.04186 -0.00244651 0
0.0416173 0.00240614 0
0.0482088 0.00173354 0
0.0445421 -0.00415568 0
0.039146 0.000368439 0
0.0452602 0.00423725 0
0.0491733 -0.00200218 0
0.0233935 -0.0154846 0

