# vtk DataFile Version 4.0
SiwiRVisFile
ASCII
DATASET STRUCTURED_POINTS
DIMENSIONS 28 14 1
ORIGIN 0 0 0
SPACING 1 1 1
POINT_DATA 392

SCALARS flags double 1
LOOKUP_TABLE default
1
1
1
1
1
1
1
1
1
1
1
1
1
1
1
1
1
1
1
1
1
1
1
1
1
1
1
1
1
1
1
1
1
1
1
1
1
1
1
1
1
1
1
1
1
1
1
1
1
1
1
1
1
1
1
1
1
1
1
1
1
1
1
1
1
1
1
1
1
1
1
1
1
1
1
1
1
1
1
1
1
1
1
1
1
1
1
1
1
1
1
1
1
1
1
1
1
1
1
1
1
1
1
1
1
1
1
1
1
1
1
1
1
1
1
1
1
1
1
1
1
1
1
1
1
1
1
1
1
1
1
1
1
1
1
1
1
1
1
1
1
1
1
1
1
1
1
1
1
1
1
1
1
1
1
1
1
1
1
1
1
1
1
1
1
1
1
1
1
1
1
1
1
1
1
1
1
1
1
1
1
1
1
1
1
1
1
1
1
1
1
1
1
1
1
1
1
1
1
1
1
1
1
1
1
1
1
1
1
1
1
1
1
1
1
1
1
1
1
1
1
1
1
1
1
1
1
1
1
1
1
1
1
1
1
1
1
1
1
1
1
1
1
1
1
1
1
1
1
1
1
1
1
1
1
1
1
1
1
1
1
1
1
1
1
1
1
1
1
1
1
1
1
1
1
1
1
1
1
1
1
1
1
1
1
1
1
1
1
1
1
1
1
1
1
1
1
1
1
1
1
1
1
1
1
1
1
1
1
1
1
1
1
1
1
1
1
1
1
1
1
1
1
1
1
1
1
1
1
1
1
1
1
1
1
1
1
1
1
1
1
1
1
1
1
1
1
1
1
1
1
1
1
1
1
1
1
1
1
1
1
1
1
1
1
1
1
1
1
1
1
1
1
1
1
1
1
1
1
1
1
1
1
1
1
1
1
1
1
1
1
1

SCALARS density double 1
LOOKUP_TABLE default
0.987856
0.980772
0.979975
0.998792
0.998241
0.998134
0.998087
1.00049
1.00126
1.00058
1.00297
1.00556
1.00504
1.00504
1.00606
1.00603
1.0059
1.00714
1.00827
1.00903
1.0077
1.01237
1.01754
1.01488
1.01085
1.01579
1.01795
1.01193
0.985011
0.978623
0.982743
0.99952
0.995668
0.998597
1.00002
0.999268
1.00018
1.00211
1.00317
1.00411
1.00563
1.00586
1.00547
1.00542
1.00655
1.00761
1.00752
1.0087
1.00859
1.01254
1.01632
1.01495
1.0126
1.01485
1.01636
1.01367
0.976604
0.987068
0
0
0
0
0
0
0
0
0
0
1.0056
1.0056
1.00536
0
0
0
0
0
0
0
1.01031
1.01376
1.01928
1.01329
1.01036
1.01775
0.967316
0.969764
0
0
0
0
0
0
0
0
0
0
0
1.00568
1.00552
0
0
0
0
0
0
0
0
1.01449
1.01466
1.01474
1.01438
1.01424
0.975296
0.96201
0
0
0
1.00495
0.999872
1.00522
1.00812
1.00487
1.00454
1.00776
1.00847
1.00462
1.00503
1.00916
1.00724
1.00434
1.00935
1.01206
1.00757
1.01142
1.01829
1.01538
1.00937
1.01606
1.01939
1.01113
0.967647
0.970624
0
0
0
0.999831
1.00523
1.00731
1.00277
1.00484
1.00954
1.00596
1.0043
1.00791
1.00795
1.00469
1.00623
1.0094
1.00793
1.00742
1.01133
1.0147
1.01259
1.01418
1.01626
1.01385
1.01306
1.01677
0.963605
0.977953
0.972036
0
0
1.00482
1.00865
1.00157
0
0
0
0
0
0
0
1.00504
1.00646
0
0
0
0
0
0
0
1.0204
1.0133
1.0094
1.01781
0.974035
0.964275
0.966802
0.974586
0
0
1.00004
1.00124
0
0
0
0
0
0
1.00652
1.00687
1.00506
0
0
0
0
0
0
1.01407
1.0108
1.01617
1.0187
1.00991
0.973721
0.961029
0.966818
0.978238
0
0
0.996077
1.0029
1.00181
0.99091
0.999147
1.00533
1.00391
1.00349
1.00608
1.00757
1.00596
1.00379
1.00691
1.00976
1.0058
1.01012
1.01635
1.01587
1.00976
1.0149
1.0193
1.01212
0.961605
0.978482
0.972396
0.958999
0
0
0
0.99696
0.998993
0.996374
1.00006
1.0005
1.00417
1.00772
1.00507
1.00387
1.00722
1.00805
1.00413
1.00556
1.01059
1.0135
1.00933
1.01427
1.01942
1.01198
1.00763
1.02259
0.9675
0.974927
0.969899
0.963256
0.97073
0
0
0.990954
0.992553
0
0
0
0
0
0
0
1.0048
1.00747
0
0
0
0
0
0
0
1.01479
1.00977
1.01646
0.977717
0.953869
0.965084
0.983733
0.968677
0
0
0.986491
0.982935
0.993248
0.993812
0.986798
0
0
0
0
0
1.00061
1.00535
1.00554
1.00183
0
0
0
0
0
1.02899
1.00449
0.964509
0.96702
0.96959
0.969676
0.969179
0.97652
0.985336
0.989357
0.989101
0.989081
0.987782
0.99375
0.994324
0.993886
0.995297
1.00081
1.0015
1.00026
1.00452
1.0067
1.00178
1.00408
1.01436
1.01
1.00361
1.01919
1.01197
1.01186
0.958449
0.984749
0.971822
0.957492
0.973105
0.982246
0.98034
0.988019
0.99284
0.987091
0.988076
0.99427
0.993092
0.99543
0.996235
0.996978
1.00268
1.00527
1.00016
1.0016
1.01063
1.00688
1.00093
1.01278
1.01989
1.00766
0.9965
1.03468

VECTORS velocity double
-0.000507746 0.000516751 0
-0.0055217 0.00240187 0
-0.00838319 1.52474e-06 0
-0.00800749 -0.00050544 0
-0.0070531 -9.20531e-05 0
-0.00769676 0.000498396 0
-0.00826127 -9.35082e-05 0
-0.00754595 -0.000376477 0
-0.00729225 0.000190545 0
-0.00795026 0.000254175 0
-0.00797356 -0.000204267 0
-0.00731144 -0.000264029 0
-0.00725737 0.000224196 0
-0.00683604 -0.000494934 0
-0.00607619 -6.24309e-06 0
-0.00641315 0.000208773 0
-0.00647513 -0.000152657 0
-0.00614133 -7.11831e-05 0
-0.0063219 0.000187482 0
-0.0065724 -2.70816e-05 0
-0.00623554 -0.000221242 0
-0.00621521 0.000295449 0
-0.0063139 -0.000322268 0
-0.00420989 -0.00109057 0
-0.00226132 -0.000241322 0
-0.00169603 -7.50729e-05 0
-0.0010027 -0.00059941 0
-4.09807e-05 -4.44703e-05 0
-0.00246012 0.00541566 0
-0.00725402 0.00716078 0
-0.00706928 0.000761911 0
-0.00743525 -0.000639504 0
-0.00837994 -6.7209e-05 0
-0.00772819 0.000491951 0
-0.00715669 -9.36306e-05 0
-0.00786555 -0.000377415 0
-0.00811269 0.000187866 0
-0.00744799 0.000261236 0
-0.00741882 -0.000245765 0
-0.00807679 -0.000356749 0
-0.00731066 -0.000829078 0
-0.00670165 -0.000727859 0
-0.00679537 -0.000435176 0
-0.00625919 0.000220793 0
-0.0062015 -0.000130955 0
-0.00653886 -7.51191e-05 0
-0.00636309 0.000191585 0
-0.00611751 -3.82982e-05 0
-0.00646196 -0.000159338 0
-0.00649133 0.000164252 0
-0.00562965 -0.00195624 0
-0.00500845 -0.00278614 0
-0.00421682 -0.00225779 0
-0.0022469 -0.00113935 0
-0.00145114 -0.00144401 0
-0.000551121 -0.000921251 0
-0.000678061 0.00960963 0
-0.00125287 0.00587017 0
0 0 0
0 0 0
0 0 0
0 0 0
0 0 0
0 0 0
0 0 0
0 0 0
0 0 0
0 0 0
-0.000817168 -0.000951898 0
-0.000790775 -0.0011483 0
5.13253e-05 -0.000618035 0
0 0 0
0 0 0
0 0 0
0 0 0
0 0 0
0 0 0
0 0 0
-0.000774431 -0.0012354 0
-0.0024575 -0.001851 0
-0.00296728 -0.0039889 0
-0.00166376 -0.0021764 0
-0.00108598 -0.00150343 0
-0.000320338 -0.00224315 0
0.00184903 0.0083622 0
0.00193225 0.00712426 0
0 0 0
0 0 0
0 0 0
0 0 0
0 0 0
0 0 0
0 0 0
0 0 0
0 0 0
0 0 0
0 0 0
-0.000654345 -0.00156564 0
-0.00063578 -0.00115673 0
0 0 0
0 0 0
0 0 0
0 0 0
0 0 0
0 0 0
0 0 0
0 0 0
-0.00168 -0.000311409 0
-0.00393194 -0.00275986 0
-0.00358501 -0.00364905 0
-0.000967437 -0.00377414 0
0.000621585 -0.00184326 0
0.000266675 0.00497568 0
0.000298774 0.010519 0
0 0 0
0 0 0
0 0 0
-0.000107045 2.97258e-05 0
-0.00181761 0.00115498 0
-0.00207217 -0.000901038 0
-0.00125199 0.000264682 0
-0.00215037 0.000363127 0
-0.00238535 -0.000192963 0
-0.00186877 -0.000116493 0
-0.00201633 0.00013024 0
-0.00240782 -0.000823603 0
-0.00315111 -0.00115804 0
-0.00348488 -0.000379147 0
-0.00328695 4.39688e-06 0
-0.00395544 0.000496989 0
-0.00480397 0.000101444 0
-0.00424313 -0.000537246 0
-0.00330271 -0.000111845 0
-0.00417151 0.000805834 0
-0.00554578 0.000532764 0
-0.00394295 -0.000717138 0
-0.00231728 -0.000986594 0
-0.00265112 -0.00530652 0
-0.00258696 -0.00658257 0
-0.000789917 -0.00216176 0
-0.00242611 0.00817132 0
-0.00246715 0.00732377 0
0 0 0
0 0 0
0 0 0
-0.00101049 0.00187474 0
-0.000532819 0.000774732 0
-0.00100324 0.000240607 0
-0.00285984 0.000304541 0
-0.0019581 0.000446857 0
-0.00171829 -0.000211594 0
-0.00223326 -0.000113834 0
-0.00208419 0.000169793 0
-0.002094 -0.000199352 0
-0.00288326 -0.000183407 0
-0.00351135 -0.000180186 0
-0.00437277 0.000836168 0
-0.00432294 0.000594133 0
-0.00347457 0.00012499 0
-0.00403979 -0.000547303 0
-0.00498464 -8.10939e-05 0
-0.00411984 0.000670368 0
-0.002757 0.000306426 0
-0.00373317 -0.000994536 0
-0.00254489 -0.00451901 0
0.00104151 -0.00509374 0
-0.000921173 -0.0035149 0
-0.00160156 -0.00536276 0
0.000578285 0.0111054 0
0.000396734 0.00429736 0
-0.00014941 0.000151886 0
0 0 0
0 0 0
0.00111791 0.00173435 0
0.000551063 0.000450682 0
-0.000449968 0.00194291 0
0 0 0
0 0 0
0 0 0
0 0 0
0 0 0
0 0 0
0 0 0
-0.000928626 0.00114197 0
-0.000897577 0.000307431 0
0 0 0
0 0 0
0 0 0
0 0 0
0 0 0
0 0 0
0 0 0
-0.00163226 -0.00682052 0
-0.00298959 -0.00527063 0
6.69077e-06 -0.00413001 0
0.00168662 -0.00587394 0
0.00282558 0.00610178 0
0.00354776 0.00919713 0
0.000524562 0.000815095 0
-0.000608843 -0.000701791 0
0 0 0
0 0 0
0.000916243 0.00236999 0
0.00113965 0.00176107 0
0 0 0
0 0 0
0 0 0
0 0 0
0 0 0
0 0 0
-0.000892147 0.00105656 0
-0.000542201 0.000707919 0
0.000376894 -0.000278241 0
0 0 0
0 0 0
0 0 0
0 0 0
0 0 0
0 0 0
-0.00139746 0.00145399 0
-0.00375655 -0.00233397 0
-0.00821117 -0.00338285 0
-0.00588277 -0.0132464 0
0.000351055 -0.00233689 0
-0.00148194 0.00384381 0
0.00102959 0.00918932 0
0.00508821 0.0014901 0
0.00202559 0.00123102 0
0 0 0
0 0 0
0.000859895 0.0013058 0
0.00111955 0.0016315 0
-0.00424465 0.00378751 0
-0.00759926 -0.000223811 0
-0.00562077 -0.0010303 0
-0.00562477 0.000947193 0
-0.007686 0.000423305 0
-0.0067116 -0.000877218 0
-0.00462029 0.00129101 0
-0.00618031 0.000770796 0
-0.0067383 -0.000809025 0
-0.00531202 7.57e-05 0
-0.00712595 0.00112467 0
-0.00808629 -0.000546501 0
-0.00570772 -0.00109626 0
-0.00568447 0.00121759 0
-0.00892247 0.00117428 0
-0.00638061 -0.000442315 0
-0.00400824 0.00178116 0
-0.00958269 -0.000382939 0
-0.0128918 -0.0169521 0
-0.00508366 -0.0100667 0
-0.00117797 0.00807606 0
-0.000231672 0.000310338 0
0.00127823 0.00157361 0
-8.41878e-05 0.00521262 0
0 0 0
0 0 0
0 0 0
-0.00231736 0.0064255 0
-0.00503938 0.00847099 0
-0.00535155 0.000226973 0
-0.00731195 -0.000916502 0
-0.00733412 0.000918207 0
-0.0052777 0.000386333 0
-0.00623059 -0.000974246 0
-0.00747746 0.000181087 0
-0.00510065 0.00106208 0
-0.00538633 0.000280784 0
-0.00801064 0.000395796 0
-0.00648559 0.00127098 0
-0.00545778 -0.000534485 0
-0.00790972 -0.00104904 0
-0.00784141 0.00110662 0
-0.00471153 0.00115415 0
-0.00568237 -0.00192436 0
-0.00717853 0.0019524 0
-0.00139813 -0.00171093 0
-0.0034718 -0.00786383 0
-0.00370377 -0.0231998 0
0.00168517 0.00760267 0
-0.00614733 0.00635326 0
-0.0141046 0.00195611 0
-0.00776071 0.00182047 0
-0.00107865 -0.00120407 0
0 0 0
0 0 0
0.00171529 0.00829215 0
0.00177681 0.00871949 0
0 0 0
0 0 0
0 0 0
0 0 0
0 0 0
0 0 0
0 0 0
0.00053533 0.00118523 0
0.00045552 0.00085604 0
0 0 0
0 0 0
0 0 0
0 0 0
0 0 0
0 0 0
0 0 0
-0.0011467 -0.00260447 0
0.0057673 -0.0148772 0
0.00871024 -0.017615 0
-0.00209158 0.0075597 0
-0.0118304 0.0236057 0
-0.0118791 -0.00318099 0
-0.00475373 -0.00690191 0
-0.00315456 -0.00660347 0
0 0 0
0 0 0
-0.00035639 0.00539519 0
0.0037637 0.00647572 0
0.0041225 0.00474035 0
0.000793045 0.000566218 0
0.000106708 -4.07924e-05 0
0 0 0
0 0 0
0 0 0
0 0 0
0 0 0
0.000552527 0.0015557 0
0.000143526 0.00084459 0
-0.000556789 9.21896e-05 0
-0.000298341 -3.08338e-05 0
0 0 0
0 0 0
0 0 0
0 0 0
0 0 0
-0.00113937 -0.0287947 0
-3.59034e-05 -0.00578582 0
-0.00672075 0.0203825 0
-0.00929643 0.0189507 0
-0.00107004 -0.00756505 0
0.00510842 -0.0102384 0
-0.00186505 -0.000981972 0
-0.00944196 -0.000210843 0
-0.00554474 -0.00297721 0
-0.000178045 0.0047359 0
-0.0032628 0.00629432 0
-0.000142691 0.00308404 0
0.00456997 0.000278867 0
0.00174106 0.00237337 0
0.00176983 -0.00186988 0
0.00449801 -4.79776e-05 0
0.00393207 0.0011649 0
0.000623718 0.00107561 0
0.00285776 -0.00170361 0
0.00584884 0.00154071 0
0.00271714 0.00291852 0
0.00116752 -0.00125249 0
0.00652705 -0.00288918 0
0.00621252 0.00244061 0
9.02799e-06 0.00150765 0
0.00317937 -0.00349969 0
0.00902077 9.02511e-05 0
0.00290788 0.0045006 0
-0.0115208 -0.0174546 0
-0.00785678 -0.0183094 0
0.0231549 0.0145985 0
0.0503482 0.00308022 0
0.0488024 -0.00440131 0
0.0355575 -0.0052401 0
0.0340364 0.00388596 0
0.0386604 -0.00098738 0
0.034265 -0.00243334 0
0.0310835 0.000570589 0
0.0403789 0.00457025 0
0.0413558 -0.0024855 0
0.0415006 0.00157851 0
0.0428641 0.000919462 0
0.0454118 -0.000587097 0
0.0402175 -0.00166027 0
0.0429251 0.00190769 0
0.0445258 -0.000174656 0
0.043545 -0.00167068 0
0.0405602 0.000163381 0
0.0454108 0.00274146 0
0.0472022 -0.00109794 0
0.0419707 -0.0023236 0
0.0415672 0.00246391 0
0.0481748 0.00156773 0
0.0446536 -0.0041085 0
0.0389327 3.6888e-05 0
0.0454096 0.00410574 0
0.0488027 -0.00209271 0
0.0251927 -0.0160957 0

