# vtk DataFile Version 4.0
SiwiRVisFile
ASCII
DATASET STRUCTURED_POINTS
DIMENSIONS 28 14 1
ORIGIN 0 0 0
SPACING 1 1 1
POINT_DATA 392

SCALARS flags double 1
LOOKUP_TABLE default
1
1
1
1
1
1
1
1
1
1
1
1
1
1
1
1
1
1
1
1
1
1
1
1
1
1
1
1
1
1
1
1
1
1
1
1
1
1
1
1
1
1
1
1
1
1
1
1
1
1
1
1
1
1
1
1
1
1
1
1
1
1
1
1
1
1
1
1
1
1
1
1
1
1
1
1
1
1
1
1
1
1
1
1
1
1
1
1
1
1
1
1
1
1
1
1
1
1
1
1
1
1
1
1
1
1
1
1
1
1
1
1
1
1
1
1
1
1
1
1
1
1
1
1
1
1
1
1
1
1
1
1
1
1
1
1
1
1
1
1
1
1
1
1
1
1
1
1
1
1
1
1
1
1
1
1
1
1
1
1
1
1
1
1
1
1
1
1
1
1
1
1
1
1
1
1
1
1
1
1
1
1
1
1
1
1
1
1
1
1
1
1
1
1
1
1
1
1
1
1
1
1
1
1
1
1
1
1
1
1
1
1
1
1
1
1
1
1
1
1
1
1
1
1
1
1
1
1
1
1
1
1
1
1
1
1
1
1
1
1
1
1
1
1
1
1
1
1
1
1
1
1
1
1
1
1
1
1
1
1
1
1
1
1
1
1
1
1
1
1
1
1
1
1
1
1
1
1
1
1
1
1
1
1
1
1
1
1
1
1
1
1
1
1
1
1
1
1
1
1
1
1
1
1
1
1
1
1
1
1
1
1
1
1
1
1
1
1
1
1
1
1
1
1
1
1
1
1
1
1
1
1
1
1
1
1
1
1
1
1
1
1
1
1
1
1
1
1
1
1
1
1
1
1
1
1
1
1
1
1
1
1
1
1
1
1
1
1
1
1
1
1
1
1
1
1
1
1
1
1
1
1
1
1
1
1
1
1
1
1
1
1

SCALARS density double 1
LOOKUP_TABLE default
0.987837
0.980741
0.979945
0.998752
0.998193
0.998091
0.998056
1.00046
1.00123
1.00056
1.00299
1.00558
1.00504
1.00505
1.00609
1.00603
1.00589
1.00715
1.00827
1.00903
1.0077
1.01236
1.01751
1.01487
1.01086
1.01578
1.01794
1.01194
0.98499
0.978596
0.982713
0.999478
0.995624
0.998557
0.999981
0.999238
1.00016
1.00209
1.00317
1.00414
1.00565
1.00586
1.00549
1.00543
1.00654
1.00761
1.00753
1.0087
1.00858
1.01253
1.01632
1.01494
1.01259
1.01485
1.01637
1.01367
0.976575
0.987045
0
0
0
0
0
0
0
0
0
0
1.00563
1.00562
1.00535
0
0
0
0
0
0
0
1.01031
1.01375
1.01927
1.01328
1.01036
1.01775
0.96728
0.969728
0
0
0
0
0
0
0
0
0
0
0
1.0057
1.00553
0
0
0
0
0
0
0
0
1.01449
1.01467
1.01475
1.01438
1.01424
0.975276
0.961985
0
0
0
1.00497
0.999898
1.00525
1.00813
1.00488
1.00456
1.00778
1.00848
1.00463
1.00506
1.00918
1.00724
1.00435
1.00936
1.01207
1.00757
1.01142
1.01829
1.01538
1.00937
1.01605
1.0194
1.01114
0.967623
0.970605
0
0
0
0.999851
1.00526
1.00733
1.00279
1.00486
1.00955
1.00598
1.00432
1.00793
1.00797
1.0047
1.00623
1.00942
1.00794
1.00743
1.01133
1.01471
1.01259
1.01418
1.01626
1.01386
1.01308
1.01678
0.963582
0.977937
0.972023
0
0
1.00485
1.00867
1.00158
0
0
0
0
0
0
0
1.00505
1.00647
0
0
0
0
0
0
0
1.02041
1.01332
1.00939
1.01781
0.974026
0.964259
0.966784
0.974569
0
0
1.00005
1.00125
0
0
0
0
0
0
1.00653
1.00688
1.00508
0
0
0
0
0
0
1.01408
1.01082
1.01619
1.01872
1.00993
0.973716
0.961013
0.9668
0.978223
0
0
0.996096
1.00292
1.00182
0.990927
0.999168
1.00535
1.00392
1.0035
1.00609
1.00759
1.00597
1.0038
1.00691
1.00977
1.00581
1.01013
1.01637
1.0159
1.00977
1.0149
1.01932
1.01215
0.961589
0.978468
0.972382
0.958973
0
0
0
0.996972
0.998988
0.996392
1.00009
1.00052
1.00418
1.00773
1.00508
1.00388
1.00722
1.00806
1.00414
1.00556
1.0106
1.01352
1.00936
1.0143
1.01943
1.012
1.00765
1.02262
0.967478
0.974914
0.969879
0.963235
0.970717
0
0
0.990961
0.992572
0
0
0
0
0
0
0
1.00481
1.00747
0
0
0
0
0
0
0
1.01482
1.00978
1.01647
0.977689
0.953838
0.965032
0.983718
0.968654
0
0
0.986475
0.982933
0.99325
0.993797
0.986779
0
0
0
0
0
1.00059
1.00534
1.00555
1.00182
0
0
0
0
0
1.02901
1.0045
0.964472
0.966978
0.969561
0.969652
0.969146
0.976515
0.985331
0.989371
0.989071
0.989104
0.987754
0.993754
0.994295
0.99389
0.995289
1.00081
1.00148
1.00028
1.00451
1.00668
1.00177
1.00409
1.01437
1.01002
1.00362
1.0192
1.01199
1.0119
0.958419
0.984727
0.971799
0.957447
0.973089
0.982218
0.980327
0.988058
0.992793
0.987127
0.988006
0.994348
0.992991
0.995489
0.996169
0.997027
1.00262
1.0053
1.00013
1.0016
1.01062
1.0069
1.00093
1.01281
1.01989
1.00768
0.996524
1.03471

VECTORS velocity double
-0.00050643 0.000508354 0
-0.00553355 0.00239245 0
-0.00840245 -1.42976e-05 0
-0.00803642 -0.000534708 0
-0.00707673 -0.000123942 0
-0.00772829 0.000468513 0
-0.00829907 -0.000126698 0
-0.00758691 -0.00041738 0
-0.00732921 0.000152347 0
-0.00799801 0.000217072 0
-0.00802473 -0.000245533 0
-0.00735913 -0.000309913 0
-0.00730347 0.000187111 0
-0.00687964 -0.000541791 0
-0.00610855 -4.54383e-05 0
-0.00644431 0.000165101 0
-0.00650024 -0.000197972 0
-0.00616606 -0.000107842 0
-0.0063473 0.000156105 0
-0.00659263 -5.16276e-05 0
-0.00625123 -0.000235534 0
-0.00622897 0.000292746 0
-0.00632814 -0.00032188 0
-0.00421745 -0.00107729 0
-0.00227463 -0.000206466 0
-0.00171208 -2.44045e-05 0
-0.00101214 -0.000550878 0
-4.30125e-05 -1.86636e-06 0
-0.00246241 0.00542696 0
-0.00727025 0.00718047 0
-0.00708383 0.000783943 0
-0.00745662 -0.000615227 0
-0.00840936 -4.08584e-05 0
-0.00776421 0.000527831 0
-0.00718729 -5.83457e-05 0
-0.0079054 -0.000343306 0
-0.00815745 0.000226187 0
-0.00749392 0.00030518 0
-0.00746243 -0.000207305 0
-0.00813233 -0.000321535 0
-0.00735654 -0.000799422 0
-0.00674551 -0.000696291 0
-0.00683257 -0.000407155 0
-0.00628735 0.000262456 0
-0.0062321 -8.78735e-05 0
-0.00656452 -3.44445e-05 0
-0.0063843 0.000223107 0
-0.00613807 -1.68077e-05 0
-0.00648037 -0.000144208 0
-0.00650092 0.000173632 0
-0.00563649 -0.00195425 0
-0.00501521 -0.00279568 0
-0.00423126 -0.00228052 0
-0.00226848 -0.00120137 0
-0.00146817 -0.00152864 0
-0.00055024 -0.000986979 0
-0.000676813 0.00960634 0
-0.00125732 0.00586365 0
0 0 0
0 0 0
0 0 0
0 0 0
0 0 0
0 0 0
0 0 0
0 0 0
0 0 0
0 0 0
-0.000826911 -0.00100082 0
-0.000797497 -0.00119763 0
5.81175e-05 -0.000668039 0
0 0 0
0 0 0
0 0 0
0 0 0
0 0 0
0 0 0
0 0 0
-0.000768811 -0.00123193 0
-0.00245425 -0.00181404 0
-0.00297645 -0.00391023 0
-0.00166719 -0.00208901 0
-0.00108938 -0.00142738 0
-0.000330504 -0.00217749 0
0.00184374 0.00837453 0
0.00193866 0.00713147 0
0 0 0
0 0 0
0 0 0
0 0 0
0 0 0
0 0 0
0 0 0
0 0 0
0 0 0
0 0 0
0 0 0
-0.000658193 -0.00156066 0
-0.000640444 -0.00113582 0
0 0 0
0 0 0
0 0 0
0 0 0
0 0 0
0 0 0
0 0 0
0 0 0
-0.00166223 -0.000316561 0
-0.00391298 -0.00279843 0
-0.00356523 -0.00377198 0
-0.000962843 -0.00394187 0
0.000642248 -0.00198241 0
0.000270438 0.00496655 0
0.000299574 0.0105111 0
0 0 0
0 0 0
0 0 0
-0.000113103 2.38116e-05 0
-0.00180852 0.00114693 0
-0.00207742 -0.000904414 0
-0.00125792 0.000255351 0
-0.00216194 0.000342591 0
-0.00238323 -0.000211522 0
-0.00188221 -0.000133282 0
-0.00203019 0.000101822 0
-0.00242565 -0.000871278 0
-0.0031726 -0.00119734 0
-0.00351039 -0.000399017 0
-0.00330668 -1.27503e-05 0
-0.00396994 0.000479206 0
-0.00481984 8.40743e-05 0
-0.00426098 -0.000552448 0
-0.00331761 -0.000126942 0
-0.00417469 0.000803248 0
-0.0055532 0.000544782 0
-0.00394747 -0.000680634 0
-0.00229844 -0.000871299 0
-0.00261681 -0.00511888 0
-0.00256411 -0.00640014 0
-0.000817799 -0.00196117 0
-0.00243431 0.00816827 0
-0.00246427 0.00732712 0
0 0 0
0 0 0
0 0 0
-0.00101396 0.00187571 0
-0.000529459 0.000780719 0
-0.00101297 0.000253211 0
-0.00285203 0.000315981 0
-0.00196759 0.000456461 0
-0.00172931 -0.000192874 0
-0.00224424 -8.64171e-05 0
-0.00208598 0.000194266 0
-0.00210862 -0.000175747 0
-0.00290905 -0.00016582 0
-0.00354032 -0.000174234 0
-0.0043907 0.000840256 0
-0.00434233 0.000607475 0
-0.00349575 0.000148196 0
-0.00404821 -0.000530889 0
-0.0049991 -7.4008e-05 0
-0.00413368 0.000674359 0
-0.00276314 0.000297795 0
-0.00373966 -0.00103418 0
-0.00252104 -0.00464372 0
0.00103475 -0.00529966 0
-0.000927015 -0.00374813 0
-0.00154356 -0.00564504 0
0.000572753 0.0110944 0
0.000407911 0.00426636 0
-0.000156076 0.000131882 0
0 0 0
0 0 0
0.00110938 0.00172627 0
0.000557132 0.000447929 0
-0.000455444 0.00194075 0
0 0 0
0 0 0
0 0 0
0 0 0
0 0 0
0 0 0
0 0 0
-0.000931466 0.00112191 0
-0.00089557 0.000287742 0
0 0 0
0 0 0
0 0 0
0 0 0
0 0 0
0 0 0
0 0 0
-0.0016657 -0.00666798 0
-0.00298636 -0.00499473 0
2.7397e-05 -0.00377891 0
0.00159515 -0.00553348 0
0.00282444 0.0060931 0
0.00357702 0.00918161 0
0.00051339 0.000846059 0
-0.000588937 -0.00065196 0
0 0 0
0 0 0
0.000918112 0.00236505 0
0.00112667 0.00175833 0
0 0 0
0 0 0
0 0 0
0 0 0
0 0 0
0 0 0
-0.00088068 0.00105979 0
-0.0005384 0.000703115 0
0.000386522 -0.000300936 0
0 0 0
0 0 0
0 0 0
0 0 0
0 0 0
0 0 0
-0.00140009 0.00136241 0
-0.00376533 -0.00248781 0
-0.00822895 -0.00363103 0
-0.00592838 -0.0136062 0
0.000368965 -0.00276056 0
-0.00150841 0.00379742 0
0.00105424 0.00912773 0
0.00505019 0.00142784 0
0.0020886 0.00116432 0
0 0 0
0 0 0
0.000889603 0.00131665 0
0.00109306 0.00164142 0
-0.00424422 0.00379814 0
-0.00760913 -0.000204061 0
-0.00564178 -0.00104539 0
-0.00562878 0.000930001 0
-0.00768691 0.000418137 0
-0.00672865 -0.000891918 0
-0.00461974 0.00127516 0
-0.00619929 0.000753379 0
-0.00673498 -0.000786408 0
-0.0053457 0.000110082 0
-0.00712436 0.00115761 0
-0.0081214 -0.000532325 0
-0.00571476 -0.00106817 0
-0.00573817 0.00123272 0
-0.0089149 0.00125421 0
-0.00642739 -0.000324228 0
-0.00399884 0.0020339 0
-0.00966069 -9.58509e-05 0
-0.0127434 -0.0167165 0
-0.00522768 -0.00967348 0
-0.00126551 0.00806801 0
-0.000248861 0.00038191 0
0.00115921 0.00165143 0
-9.20556e-05 0.00534953 0
0 0 0
0 0 0
0 0 0
-0.00237796 0.00639977 0
-0.00502347 0.00849905 0
-0.00536661 0.000208072 0
-0.0073267 -0.000906679 0
-0.00734358 0.000932218 0
-0.00528275 0.000397813 0
-0.0062433 -0.000959174 0
-0.00746915 0.000179848 0
-0.00513459 0.00104612 0
-0.00539672 0.00025703 0
-0.00803098 0.000350623 0
-0.00649586 0.00122633 0
-0.00550173 -0.000539881 0
-0.00790636 -0.00106917 0
-0.00788419 0.00107641 0
-0.0047062 0.00107494 0
-0.00579565 -0.00200523 0
-0.00702673 0.00168794 0
-0.00161629 -0.00191705 0
-0.00324641 -0.0080212 0
-0.00382297 -0.0234859 0
0.00171935 0.00756981 0
-0.00628208 0.00629807 0
-0.0142033 0.00179835 0
-0.00788149 0.00151338 0
-0.00104678 -0.00162091 0
0 0 0
0 0 0
0.00172467 0.00838721 0
0.00181428 0.00870963 0
0 0 0
0 0 0
0 0 0
0 0 0
0 0 0
0 0 0
0 0 0
0.000493336 0.00118769 0
0.000454308 0.000905537 0
0 0 0
0 0 0
0 0 0
0 0 0
0 0 0
0 0 0
0 0 0
-0.00136458 -0.00245466 0
0.00614794 -0.0148042 0
0.00799848 -0.0173673 0
-0.00200544 0.00780276 0
-0.0118811 0.0238003 0
-0.0117259 -0.00293877 0
-0.00502211 -0.00677429 0
-0.00276216 -0.00647128 0
0 0 0
0 0 0
-0.000269337 0.00551078 0
0.00374705 0.00641113 0
0.00411748 0.00479552 0
0.000771473 0.000150385 0
0.000163276 0.000170544 0
0 0 0
0 0 0
0 0 0
0 0 0
0 0 0
0.000469326 0.00158597 0
0.000176705 0.000638646 0
-0.000546997 -1.84235e-05 0
-0.000315516 -0.000194294 0
0 0 0
0 0 0
0 0 0
0 0 0
0 0 0
-0.0007966 -0.0287924 0
-0.000446417 -0.00589796 0
-0.00637838 0.0201115 0
-0.00932524 0.018845 0
-0.000866707 -0.00792813 0
0.00497183 -0.0105063 0
-0.00152058 -0.00112888 0
-0.00987438 -0.000571377 0
-0.00506779 -0.00254108 0
-0.00067102 0.00416806 0
-0.00295442 0.00670227 0
-0.000395678 0.00273688 0
0.00462776 0.00102871 0
0.001873 0.00182009 0
0.00153376 -0.001052 0
0.00471092 -0.000963284 0
0.00378269 0.00163241 0
0.000737071 0.000441411 0
0.00284698 -0.00159093 0
0.00589873 0.00134897 0
0.00266629 0.00312433 0
0.00116698 -0.00119007 0
0.00650747 -0.00264082 0
0.00627294 0.00241948 0
-5.90862e-05 0.00155636 0
0.00321508 -0.00382063 0
0.00914378 2.92058e-05 0
0.0025099 0.00431436 0
-0.0110546 -0.0174317 0
-0.00808958 -0.0184773 0
0.0232874 0.0150879 0
0.0503432 0.00330067 0
0.0490261 -0.00407733 0
0.0353643 -0.00513213 0
0.0341446 0.00400913 0
0.0386977 -0.000694921 0
0.0338938 -0.00268233 0
0.0316953 0.00122943 0
0.0396199 0.00398496 0
0.0421835 -0.00216328 0
0.0405214 0.000839457 0
0.0438677 0.00145998 0
0.0443813 -0.00115538 0
0.0412037 -0.00100288 0
0.0421291 0.00162127 0
0.0451789 0.000330481 0
0.0430674 -0.00175937 0
0.0409229 0.000333132 0
0.0451497 0.00247977 0
0.0473834 -0.00116299 0
0.0418005 -0.00252737 0
0.0417251 0.00252702 0
0.0480605 0.00156916 0
0.0447862 -0.00388925 0
0.0388502 8.70588e-05 0
0.0454899 0.00430663 0
0.048933 -0.00208826 0
0.023628 -0.015302 0

