# vtk DataFile Version 4.0
SiwiRVisFile
ASCII
DATASET STRUCTURED_POINTS
DIMENSIONS 28 14 1
ORIGIN 0 0 0
SPACING 1 1 1
POINT_DATA 392

SCALARS flags double 1
LOOKUP_TABLE default
1
1
1
1
1
1
1
1
1
1
1
1
1
1
1
1
1
1
1
1
1
1
1
1
1
1
1
1
1
1
1
1
1
1
1
1
1
1
1
1
1
1
1
1
1
1
1
1
1
1
1
1
1
1
1
1
1
1
1
1
1
1
1
1
1
1
1
1
1
1
1
1
1
1
1
1
1
1
1
1
1
1
1
1
1
1
1
1
1
1
1
1
1
1
1
1
1
1
1
1
1
1
1
1
1
1
1
1
1
1
1
1
1
1
1
1
1
1
1
1
1
1
1
1
1
1
1
1
1
1
1
1
1
1
1
1
1
1
1
1
1
1
1
1
1
1
1
1
1
1
1
1
1
1
1
1
1
1
1
1
1
1
1
1
1
1
1
1
1
1
1
1
1
1
1
1
1
1
1
1
1
1
1
1
1
1
1
1
1
1
1
1
1
1
1
1
1
1
1
1
1
1
1
1
1
1
1
1
1
1
1
1
1
1
1
1
1
1
1
1
1
1
1
1
1
1
1
1
1
1
1
1
1
1
1
1
1
1
1
1
1
1
1
1
1
1
1
1
1
1
1
1
1
1
1
1
1
1
1
1
1
1
1
1
1
1
1
1
1
1
1
1
1
1
1
1
1
1
1
1
1
1
1
1
1
1
1
1
1
1
1
1
1
1
1
1
1
1
1
1
1
1
1
1
1
1
1
1
1
1
1
1
1
1
1
1
1
1
1
1
1
1
1
1
1
1
1
1
1
1
1
1
1
1
1
1
1
1
1
1
1
1
1
1
1
1
1
1
1
1
1
1
1
1
1
1
1
1
1
1
1
1
1
1
1
1
1
1
1
1
1
1
1
1
1
1
1
1
1
1
1
1
1
1
1
1
1
1
1
1
1
1

SCALARS density double 1
LOOKUP_TABLE default
0.987837
0.980741
0.979945
0.998752
0.998193
0.998091
0.998056
1.00046
1.00123
1.00056
1.00299
1.00559
1.00504
1.00505
1.00609
1.00603
1.00589
1.00715
1.00827
1.00903
1.0077
1.01236
1.01751
1.01487
1.01086
1.01578
1.01794
1.01194
0.98499
0.978596
0.982713
0.999478
0.995625
0.998557
0.999981
0.999238
1.00016
1.00209
1.00317
1.00414
1.00565
1.00586
1.00549
1.00543
1.00654
1.00761
1.00753
1.0087
1.00858
1.01253
1.01632
1.01494
1.01259
1.01485
1.01637
1.01367
0.976575
0.987046
0
0
0
0
0
0
0
0
0
0
1.00563
1.00562
1.00535
0
0
0
0
0
0
0
1.01031
1.01375
1.01927
1.01328
1.01036
1.01775
0.96728
0.969728
0
0
0
0
0
0
0
0
0
0
0
1.0057
1.00553
0
0
0
0
0
0
0
0
1.01449
1.01467
1.01475
1.01438
1.01424
0.975276
0.961985
0
0
0
1.00497
0.999898
1.00525
1.00813
1.00488
1.00456
1.00778
1.00848
1.00463
1.00506
1.00918
1.00724
1.00435
1.00936
1.01207
1.00757
1.01142
1.01829
1.01538
1.00937
1.01605
1.0194
1.01114
0.967623
0.970605
0
0
0
0.999851
1.00526
1.00733
1.00279
1.00486
1.00955
1.00598
1.00432
1.00793
1.00797
1.0047
1.00623
1.00942
1.00794
1.00743
1.01133
1.01471
1.01259
1.01418
1.01626
1.01386
1.01308
1.01678
0.963582
0.977937
0.972023
0
0
1.00485
1.00867
1.00158
0
0
0
0
0
0
0
1.00505
1.00647
0
0
0
0
0
0
0
1.02041
1.01332
1.00939
1.01781
0.974026
0.964259
0.966784
0.974569
0
0
1.00005
1.00125
0
0
0
0
0
0
1.00653
1.00688
1.00508
0
0
0
0
0
0
1.01408
1.01082
1.01619
1.01872
1.00993
0.973716
0.961014
0.9668
0.978223
0
0
0.996096
1.00292
1.00182
0.990927
0.999168
1.00535
1.00392
1.0035
1.00609
1.00759
1.00597
1.0038
1.00691
1.00977
1.00581
1.01013
1.01637
1.0159
1.00977
1.0149
1.01932
1.01215
0.961589
0.978468
0.972381
0.958973
0
0
0
0.996972
0.998988
0.996392
1.00009
1.00052
1.00418
1.00773
1.00508
1.00388
1.00722
1.00806
1.00414
1.00556
1.0106
1.01352
1.00936
1.0143
1.01943
1.012
1.00765
1.02262
0.967478
0.974914
0.969879
0.963235
0.970717
0
0
0.990961
0.992572
0
0
0
0
0
0
0
1.00481
1.00747
0
0
0
0
0
0
0
1.01482
1.00978
1.01647
0.977689
0.953837
0.965033
0.983718
0.968654
0
0
0.986475
0.982933
0.99325
0.993797
0.986779
0
0
0
0
0
1.00059
1.00534
1.00555
1.00182
0
0
0
0
0
1.02901
1.0045
0.964472
0.966979
0.969561
0.969652
0.969146
0.976515
0.985331
0.989371
0.989071
0.989104
0.987754
0.993754
0.994295
0.99389
0.995289
1.00081
1.00148
1.00028
1.00451
1.00668
1.00177
1.00409
1.01437
1.01002
1.00362
1.0192
1.01199
1.0119
0.958419
0.984727
0.971799
0.957447
0.973089
0.982218
0.980327
0.988058
0.992793
0.987127
0.988006
0.994348
0.992991
0.995489
0.996169
0.997026
1.00262
1.0053
1.00013
1.0016
1.01062
1.0069
1.00093
1.01281
1.01989
1.00768
0.996524
1.03471

VECTORS velocity double
-0.00051205 0.000514342 0
-0.00552926 0.00239967 0
-0.00840502 -2.55307e-06 0
-0.00803379 -0.000517187 0
-0.00707905 -0.000107596 0
-0.00772662 0.000485282 0
-0.00829997 -0.000110894 0
-0.00758621 -0.000402149 0
-0.00732955 0.000165454 0
-0.00799815 0.000227394 0
-0.00802401 -0.000236923 0
-0.00736009 -0.000305403 0
-0.00730237 0.000188728 0
-0.00688068 -0.000544732 0
-0.00610705 -5.36474e-05 0
-0.00644616 0.000147308 0
-0.00649859 -0.000224787 0
-0.00616808 -0.000142369 0
-0.00634505 0.00011872 0
-0.00659525 -9.44864e-05 0
-0.00624918 -0.000279436 0
-0.0062306 0.000248994 0
-0.00632747 -0.000364659 0
-0.00421931 -0.00112134 0
-0.00227212 -0.000245145 0
-0.00171353 -6.08592e-05 0
-0.00101119 -0.000587619 0
-4.37693e-05 -3.77736e-05 0
-0.00246712 0.00542078 0
-0.00726638 0.00717219 0
-0.00708718 0.00077186 0
-0.00745371 -0.000631636 0
-0.00841125 -5.69319e-05 0
-0.00776247 0.000510246 0
-0.0071887 -7.41135e-05 0
-0.00790459 -0.000357964 0
-0.00815749 0.000212909 0
-0.00749428 0.000294525 0
-0.00746161 -0.000215743 0
-0.00813363 -0.000325826 0
-0.0073548 -0.000801172 0
-0.00674684 -0.000693966 0
-0.00683128 -0.000399977 0
-0.00628858 0.000280094 0
-0.00623085 -6.16894e-05 0
-0.00656663 -1.50053e-07 0
-0.00638235 0.000261159 0
-0.00614011 2.59595e-05 0
-0.00647848 -0.000101139 0
-0.00650273 0.000217738 0
-0.00563481 -0.00191379 0
-0.00501647 -0.00275711 0
-0.0042299 -0.00224458 0
-0.00226939 -0.00116752 0
-0.00146764 -0.00149561 0
-0.000550488 -0.000953427 0
-0.000682672 0.00961358 0
-0.00125236 0.00587259 0
0 0 0
0 0 0
0 0 0
0 0 0
0 0 0
0 0 0
0 0 0
0 0 0
0 0 0
0 0 0
-0.00082474 -0.000998726 0
-0.000800234 -0.00119837 0
6.0989e-05 -0.000673079 0
0 0 0
0 0 0
0 0 0
0 0 0
0 0 0
0 0 0
0 0 0
-0.000768756 -0.00126981 0
-0.0024547 -0.00184696 0
-0.00297655 -0.0039406 0
-0.0016674 -0.00211745 0
-0.0010889 -0.00145505 0
-0.000330947 -0.00220532 0
0.00184459 0.00836667 0
0.00193805 0.00712331 0
0 0 0
0 0 0
0 0 0
0 0 0
0 0 0
0 0 0
0 0 0
0 0 0
0 0 0
0 0 0
0 0 0
-0.000661391 -0.00156105 0
-0.000637206 -0.00113323 0
0 0 0
0 0 0
0 0 0
0 0 0
0 0 0
0 0 0
0 0 0
0 0 0
-0.00166055 -0.000287904 0
-0.00391398 -0.00277473 0
-0.00356446 -0.00375067 0
-0.000964112 -0.00392088 0
0.000644407 -0.00196209 0
0.000266015 0.00497402 0
0.000304513 0.0105187 0
0 0 0
0 0 0
0 0 0
-0.000111536 2.78495e-05 0
-0.00180988 0.00115091 0
-0.00207634 -0.000899807 0
-0.0012584 0.000261076 0
-0.00216234 0.000348363 0
-0.00238163 -0.00020402 0
-0.00188485 -0.000128441 0
-0.00202704 0.000105648 0
-0.00242888 -0.000870883 0
-0.00316934 -0.00119863 0
-0.00351342 -0.000402911 0
-0.00330364 -1.9546e-05 0
-0.00397261 0.000466539 0
-0.00481795 6.43997e-05 0
-0.00426286 -0.000577423 0
-0.00331626 -0.000154256 0
-0.0041748 0.000776493 0
-0.0055548 0.000515786 0
-0.0039459 -0.000705147 0
-0.00230092 -0.000889926 0
-0.0026143 -0.00513267 0
-0.00256571 -0.00641305 0
-0.000817486 -0.00197382 0
-0.00243238 0.00816165 0
-0.0024658 0.00731972 0
0 0 0
0 0 0
0 0 0
-0.0010128 0.00187169 0
-0.000530286 0.000776474 0
-0.00101234 0.000248714 0
-0.00285236 0.000310354 0
-0.00196786 0.000450535 0
-0.00172801 -0.00020026 0
-0.00224647 -9.12921e-05 0
-0.00208294 0.000190064 0
-0.00211225 -0.000176139 0
-0.00290532 -0.000164701 0
-0.00354339 -0.000170782 0
-0.00438805 0.000846281 0
-0.00434456 0.00062054 0
-0.00349416 0.000167913 0
-0.00404937 -0.000507231 0
-0.00499877 -4.6967e-05 0
-0.00413408 0.000703082 0
-0.00276361 0.000327386 0
-0.00373738 -0.00101347 0
-0.00252284 -0.00463054 0
0.00103756 -0.00529234 0
-0.000930959 -0.0037425 0
-0.00153911 -0.00564011 0
0.000570184 0.0111018 0
0.000408881 0.00427348 0
-0.000154481 0.000142648 0
0 0 0
0 0 0
0.00110926 0.00173029 0
0.000557488 0.000452052 0
-0.000456041 0.00194525 0
0 0 0
0 0 0
0 0 0
0 0 0
0 0 0
0 0 0
0 0 0
-0.000934641 0.00111917 0
-0.000892816 0.000283167 0
0 0 0
0 0 0
0 0 0
0 0 0
0 0 0
0 0 0
0 0 0
-0.001672 -0.0066751 0
-0.00298188 -0.0049969 0
2.50767e-05 -0.00377829 0
0.00159655 -0.00553245 0
0.00282481 0.00608442 0
0.00357702 0.00917399 0
0.000512557 0.000835171 0
-0.00058784 -0.000666095 0
0 0 0
0 0 0
0.000920944 0.00236079 0
0.00112373 0.00175417 0
0 0 0
0 0 0
0 0 0
0 0 0
0 0 0
0 0 0
-0.000879682 0.00106045 0
-0.000538815 0.000705359 0
0.000386555 -0.000297848 0
0 0 0
0 0 0
0 0 0
0 0 0
0 0 0
0 0 0
-0.00139462 0.00136876 0
-0.00376962 -0.00248526 0
-0.00822537 -0.00363259 0
-0.00593197 -0.0136116 0
0.000372862 -0.00276652 0
-0.00151087 0.0038059 0
0.00105588 0.00913821 0
0.00504906 0.00144002 0
0.00208907 0.0011788 0
0 0 0
0 0 0
0.000894759 0.00132169 0
0.00108741 0.00164503 0
-0.00423855 0.00380079 0
-0.0076135 -0.000202352 0
-0.00563868 -0.00104352 0
-0.00563081 0.000930935 0
-0.00768617 0.000418465 0
-0.00672814 -0.000890825 0
-0.00462104 0.0012738 0
-0.00619771 0.000751662 0
-0.00673668 -0.000788557 0
-0.00534295 0.000105403 0
-0.00712859 0.00114771 0
-0.00811666 -0.000545591 0
-0.00572092 -0.0010868 0
-0.00573073 0.00122372 0
-0.00892139 0.00124518 0
-0.00642289 -0.000329512 0
-0.00400285 0.00203362 0
-0.0096579 -9.14353e-05 0
-0.012743 -0.016711 0
-0.00522983 -0.0096632 0
-0.00126462 0.0080595 0
-0.000247399 0.000369786 0
0.00115572 0.00163733 0
-8.98935e-05 0.00533199 0
0 0 0
0 0 0
0 0 0
-0.00238725 0.00639585 0
-0.00501644 0.00849601 0
-0.00537148 0.000205935 0
-0.00732349 -0.000908511 0
-0.00734542 0.000931281 0
-0.00528215 0.000397454 0
-0.0062425 -0.000960276 0
-0.00747125 0.000181701 0
-0.00513127 0.00104733 0
-0.00540016 0.000258125 0
-0.0080278 0.000353792 0
-0.00649929 0.00123616 0
-0.00549696 -0.000527779 0
-0.00791286 -0.00105211 0
-0.00787839 0.0010864 0
-0.00471123 0.00108522 0
-0.00579191 -0.00200115 0
-0.00702769 0.00168746 0
-0.00161709 -0.00192343 0
-0.00324673 -0.00802689 0
-0.0038205 -0.0234963 0
0.00170825 0.00758019 0
-0.00627485 0.00630902 0
-0.0142053 0.00181421 0
-0.00788053 0.00153328 0
-0.0010495 -0.0015985 0
0 0 0
0 0 0
0.00171558 0.00839387 0
0.00182115 0.0087162 0
0 0 0
0 0 0
0 0 0
0 0 0
0 0 0
0 0 0
0 0 0
0.000489215 0.00118775 0
0.000458374 0.00090665 0
0 0 0
0 0 0
0 0 0
0 0 0
0 0 0
0 0 0
0 0 0
-0.00136146 -0.00244685 0
0.00615241 -0.014797 0
0.00798634 -0.0173583 0
-0.00201093 0.00779072 0
-0.0118795 0.0237877 0
-0.0117289 -0.00295933 0
-0.00502138 -0.00679224 0
-0.00276596 -0.00648614 0
0 0 0
0 0 0
-0.000278416 0.00549944 0
0.00375248 0.00639915 0
0.00411022 0.00478056 0
0.000779094 0.000136993 0
0.00015354 0.000158654 0
0 0 0
0 0 0
0 0 0
0 0 0
0 0 0
0.000467542 0.00157692 0
0.000173201 0.000623748 0
-0.000542397 -3.59318e-05 0
-0.000322804 -0.000205544 0
0 0 0
0 0 0
0 0 0
0 0 0
0 0 0
-0.000798062 -0.0288016 0
-0.000448549 -0.00590816 0
-0.00639794 0.0201268 0
-0.00932126 0.0188681 0
-0.000867779 -0.00790624 0
0.00496907 -0.0104918 0
-0.00151739 -0.00111818 0
-0.0098755 -0.000561843 0
-0.00506355 -0.00252314 0
-0.000675579 0.00418341 0
-0.00295062 0.00671843 0
-0.000400566 0.00275404 0
0.00462985 0.00104402 0
0.00187175 0.00183325 0
0.00153474 -0.00104225 0
0.00471281 -0.000945548 0
0.00377903 0.00164294 0
0.000741451 0.000460485 0
0.00284474 -0.00157517 0
0.00590081 0.00136479 0
0.00266192 0.00314 0
0.0011692 -0.00117149 0
0.00650591 -0.00263052 0
0.00627325 0.0024298 0
-5.7426e-05 0.00156718 0
0.00321683 -0.0037961 0
0.00913887 3.6204e-05 0
0.00251072 0.00433335 0
-0.0110506 -0.0174211 0
-0.00809621 -0.0184703 0
0.0232832 0.0150558 0
0.0503382 0.00327357 0
0.0490275 -0.00409417 0
0.0353666 -0.00514381 0
0.0341428 0.00399349 0
0.0386985 -0.000706027 0
0.0338944 -0.00269658 0
0.0316956 0.00121251 0
0.0396187 0.00396458 0
0.0421835 -0.00217993 0
0.0405217 0.000820983 0
0.0438664 0.0014436 0
0.0443837 -0.00116608 0
0.0412014 -0.00101961 0
0.0421315 0.00160737 0
0.0451762 0.000312515 0
0.0430702 -0.00177152 0
0.0409212 0.000315782 0
0.0451497 0.0024613 0
0.0473821 -0.00118021 0
0.0418033 -0.00253793 0
0.0417228 0.00251206 0
0.0480617 0.00155547 0
0.0447843 -0.00390514 0
0.0388548 7.65184e-05 0
0.0454829 0.00428522 0
0.0489391 -0.00209765 0
0.0236142 -0.0152984 0

