# vtk DataFile Version 4.0
SiwiRVisFile
ASCII
DATASET STRUCTURED_POINTS
DIMENSIONS 28 14 1
ORIGIN 0 0 0
SPACING 1 1 1
POINT_DATA 392

SCALARS flags double 1
LOOKUP_TABLE default
1
1
1
1
1
1
1
1
1
1
1
1
1
1
1
1
1
1
1
1
1
1
1
1
1
1
1
1
1
1
1
1
1
1
1
1
1
1
1
1
1
1
1
1
1
1
1
1
1
1
1
1
1
1
1
1
1
1
1
1
1
1
1
1
1
1
1
1
1
1
1
1
1
1
1
1
1
1
1
1
1
1
1
1
1
1
1
1
1
1
1
1
1
1
1
1
1
1
1
1
1
1
1
1
1
1
1
1
1
1
1
1
1
1
1
1
1
1
1
1
1
1
1
1
1
1
1
1
1
1
1
1
1
1
1
1
1
1
1
1
1
1
1
1
1
1
1
1
1
1
1
1
1
1
1
1
1
1
1
1
1
1
1
1
1
1
1
1
1
1
1
1
1
1
1
1
1
1
1
1
1
1
1
1
1
1
1
1
1
1
1
1
1
1
1
1
1
1
1
1
1
1
1
1
1
1
1
1
1
1
1
1
1
1
1
1
1
1
1
1
1
1
1
1
1
1
1
1
1
1
1
1
1
1
1
1
1
1
1
1
1
1
1
1
1
1
1
1
1
1
1
1
1
1
1
1
1
1
1
1
1
1
1
1
1
1
1
1
1
1
1
1
1
1
1
1
1
1
1
1
1
1
1
1
1
1
1
1
1
1
1
1
1
1
1
1
1
1
1
1
1
1
1
1
1
1
1
1
1
1
1
1
1
1
1
1
1
1
1
1
1
1
1
1
1
1
1
1
1
1
1
1
1
1
1
1
1
1
1
1
1
1
1
1
1
1
1
1
1
1
1
1
1
1
1
1
1
1
1
1
1
1
1
1
1
1
1
1
1
1
1
1
1
1
1
1
1
1
1
1
1
1
1
1
1
1
1
1
1
1
1
1

SCALARS density double 1
LOOKUP_TABLE default
0.987837
0.980741
0.979945
0.998752
0.998193
0.998091
0.998056
1.00046
1.00123
1.00056
1.00299
1.00559
1.00504
1.00505
1.00609
1.00603
1.00589
1.00715
1.00827
1.00903
1.0077
1.01236
1.01751
1.01487
1.01086
1.01578
1.01794
1.01194
0.98499
0.978596
0.982713
0.999478
0.995625
0.998557
0.999981
0.999238
1.00016
1.00209
1.00317
1.00414
1.00565
1.00586
1.00549
1.00543
1.00654
1.00761
1.00753
1.0087
1.00858
1.01253
1.01632
1.01494
1.01259
1.01485
1.01637
1.01367
0.976575
0.987045
0
0
0
0
0
0
0
0
0
0
1.00563
1.00562
1.00535
0
0
0
0
0
0
0
1.01031
1.01375
1.01927
1.01328
1.01036
1.01775
0.96728
0.969728
0
0
0
0
0
0
0
0
0
0
0
1.0057
1.00553
0
0
0
0
0
0
0
0
1.01449
1.01467
1.01475
1.01438
1.01424
0.975276
0.961985
0
0
0
1.00497
0.999898
1.00525
1.00813
1.00488
1.00456
1.00778
1.00848
1.00463
1.00506
1.00918
1.00724
1.00435
1.00936
1.01207
1.00757
1.01142
1.01829
1.01538
1.00937
1.01605
1.0194
1.01114
0.967623
0.970605
0
0
0
0.999851
1.00526
1.00733
1.00279
1.00486
1.00955
1.00598
1.00432
1.00793
1.00797
1.0047
1.00623
1.00942
1.00794
1.00743
1.01133
1.01471
1.01259
1.01418
1.01626
1.01386
1.01308
1.01678
0.963582
0.977937
0.972023
0
0
1.00485
1.00867
1.00158
0
0
0
0
0
0
0
1.00505
1.00647
0
0
0
0
0
0
0
1.02041
1.01332
1.00939
1.01781
0.974026
0.964259
0.966784
0.974569
0
0
1.00005
1.00125
0
0
0
0
0
0
1.00653
1.00688
1.00508
0
0
0
0
0
0
1.01408
1.01082
1.01619
1.01872
1.00993
0.973716
0.961014
0.9668
0.978223
0
0
0.996096
1.00292
1.00182
0.990927
0.999168
1.00535
1.00392
1.0035
1.00609
1.00759
1.00597
1.0038
1.00691
1.00977
1.00581
1.01013
1.01637
1.0159
1.00977
1.0149
1.01932
1.01215
0.961589
0.978468
0.972381
0.958973
0
0
0
0.996972
0.998988
0.996392
1.00009
1.00052
1.00418
1.00773
1.00508
1.00388
1.00722
1.00806
1.00414
1.00556
1.0106
1.01352
1.00935
1.0143
1.01943
1.012
1.00765
1.02262
0.967478
0.974914
0.969879
0.963235
0.970717
0
0
0.990961
0.992572
0
0
0
0
0
0
0
1.00481
1.00747
0
0
0
0
0
0
0
1.01482
1.00978
1.01647
0.977689
0.953837
0.965033
0.983718
0.968654
0
0
0.986475
0.982933
0.99325
0.993797
0.986779
0
0
0
0
0
1.00059
1.00534
1.00555
1.00182
0
0
0
0
0
1.02901
1.0045
0.964472
0.966979
0.969561
0.969652
0.969146
0.976515
0.985331
0.989371
0.989071
0.989104
0.987754
0.993754
0.994295
0.99389
0.995289
1.00081
1.00148
1.00028
1.00451
1.00668
1.00177
1.00409
1.01437
1.01002
1.00362
1.0192
1.01199
1.0119
0.958419
0.984727
0.971799
0.957447
0.973089
0.982218
0.980327
0.988058
0.992793
0.987127
0.988006
0.994348
0.992991
0.995489
0.996169
0.997026
1.00262
1.0053
1.00013
1.0016
1.01062
1.0069
1.00093
1.01281
1.01989
1.00768
0.996524
1.03471

VECTORS velocity double
-0.000510437 0.000512911 0
-0.00553057 0.00239776 0
-0.00840406 -5.64223e-06 0
-0.00803484 -0.0005222 0
-0.00707798 -0.000112173 0
-0.00772757 0.000479834 0
-0.00829921 -0.000115961 0
-0.00758695 -0.000407831 0
-0.00732893 0.000160522 0
-0.00799858 0.000222664 0
-0.00802384 -0.000241103 0
-0.00736013 -0.0003088 0
-0.00730247 0.000186275 0
-0.00688052 -0.00054601 0
-0.0061074 -5.35799e-05 0
-0.00644566 0.000149955 0
-0.00649918 -0.000219768 0
-0.00616733 -0.000134492 0
-0.00634593 0.000127971 0
-0.00659423 -8.26046e-05 0
-0.00625008 -0.000266524 0
-0.00622979 0.000263123 0
-0.00632794 -0.000350028 0
-0.00421838 -0.00110535 0
-0.00227324 -0.000230397 0
-0.00171279 -4.63061e-05 0
-0.00101172 -0.000572676 0
-4.33473e-05 -2.31467e-05 0
-0.00246573 0.00542227 0
-0.00726755 0.00717432 0
-0.0070861 0.000775071 0
-0.00745479 -0.000626915 0
-0.00841031 -5.24351e-05 0
-0.00776345 0.000515949 0
-0.00718776 -6.90549e-05 0
-0.00790536 -0.000352486 0
-0.00815699 0.000217905 0
-0.00749464 0.000299391 0
-0.00746144 -0.000211641 0
-0.0081336 -0.000322542 0
-0.00735505 -0.000798704 0
-0.0067466 -0.000692614 0
-0.00683161 -0.000399885 0
-0.00628821 0.000277505 0
-0.00623135 -6.65788e-05 0
-0.00656586 -7.9793e-06 0
-0.00638314 0.000251743 0
-0.00613925 1.41074e-05 0
-0.00647934 -0.000113813 0
-0.00650183 0.000203466 0
-0.00563563 -0.0019277 0
-0.00501578 -0.00277117 0
-0.00423062 -0.00225838 0
-0.00226883 -0.00118111 0
-0.00146808 -0.00150917 0
-0.000550123 -0.000967254 0
-0.000681174 0.00961181 0
-0.00125366 0.00587038 0
0 0 0
0 0 0
0 0 0
0 0 0
0 0 0
0 0 0
0 0 0
0 0 0
0 0 0
0 0 0
-0.000825259 -0.00100121 0
-0.000799557 -0.0012 0
6.02383e-05 -0.000673532 0
0 0 0
0 0 0
0 0 0
0 0 0
0 0 0
0 0 0
0 0 0
-0.000769165 -0.00125676 0
-0.00245421 -0.00183488 0
-0.00297682 -0.00392876 0
-0.001667 -0.00210581 0
-0.00108933 -0.00144343 0
-0.000330614 -0.00219357 0
0.00184425 0.0083686 0
0.00193835 0.00712526 0
0 0 0
0 0 0
0 0 0
0 0 0
0 0 0
0 0 0
0 0 0
0 0 0
0 0 0
0 0 0
0 0 0
-0.000660333 -0.00155935 0
-0.00063831 -0.0011324 0
0 0 0
0 0 0
0 0 0
0 0 0
0 0 0
0 0 0
0 0 0
0 0 0
-0.00166073 -0.000298517 0
-0.00391398 -0.00278418 0
-0.00356446 -0.00375971 0
-0.00096394 -0.0039301 0
0.000643961 -0.0019711 0
0.000266712 0.00497215 0
0.000303696 0.0105169 0
0 0 0
0 0 0
0 0 0
-0.000112771 2.66907e-05 0
-0.00180877 0.00114976 0
-0.00207728 -0.000901202 0
-0.00125772 0.000259211 0
-0.00216261 0.000346433 0
-0.00238189 -0.000206809 0
-0.00188411 -0.000130517 0
-0.00202813 0.000103292 0
-0.00242768 -0.000872336 0
-0.0031706 -0.00119958 0
-0.00351216 -0.00040286 0
-0.00330499 -1.85668e-05 0
-0.00397125 0.000469504 0
-0.00481918 6.91928e-05 0
-0.00426165 -0.000570397 0
-0.00331727 -0.00014621 0
-0.00417423 0.000785148 0
-0.00555467 0.000525943 0
-0.00394611 -0.000695889 0
-0.00230024 -0.000882296 0
-0.00261507 -0.00512644 0
-0.0025652 -0.00640695 0
-0.000817553 -0.00196762 0
-0.00243344 0.00816332 0
-0.00246495 0.00732165 0
0 0 0
0 0 0
0 0 0
-0.00101388 0.0018728 0
-0.000529394 0.000777724 0
-0.00101312 0.00025011 0
-0.00285175 0.00031217 0
-0.00196816 0.000452517 0
-0.00172817 -0.000197511 0
-0.00224586 -8.9216e-05 0
-0.002084 0.000192531 0
-0.00211084 -0.000174816 0
-0.00290688 -0.000163813 0
-0.00354196 -0.000170816 0
-0.00438938 0.000845447 0
-0.00434337 0.000617502 0
-0.00349526 0.000163114 0
-0.00404837 -0.000513891 0
-0.00499947 -5.49178e-05 0
-0.00413349 0.000693791 0
-0.00276366 0.000317028 0
-0.00373814 -0.00102143 0
-0.00252211 -0.00463621 0
0.00103634 -0.00529612 0
-0.000929367 -0.00374574 0
-0.00154076 -0.00564335 0
0.000570485 0.0111 0
0.000409007 0.00427153 0
-0.000155269 0.000139453 0
0 0 0
0 0 0
0.00110885 0.00172927 0
0.000557844 0.000450838 0
-0.000456264 0.00194381 0
0 0 0
0 0 0
0 0 0
0 0 0
0 0 0
0 0 0
0 0 0
-0.000933087 0.00111911 0
-0.000894238 0.000283688 0
0 0 0
0 0 0
0 0 0
0 0 0
0 0 0
0 0 0
0 0 0
-0.00166917 -0.00667167 0
-0.00298395 -0.00499508 0
2.64542e-05 -0.0037774 0
0.00159539 -0.00553165 0
0.00282456 0.00608673 0
0.00357723 0.00917615 0
0.000512577 0.000838444 0
-0.000587939 -0.000661632 0
0 0 0
0 0 0
0.000919936 0.00236207 0
0.00112482 0.00175546 0
0 0 0
0 0 0
0 0 0
0 0 0
0 0 0
0 0 0
-0.000880648 0.00106084 0
-0.000538116 0.000705463 0
0.000386062 -0.000298131 0
0 0 0
0 0 0
0 0 0
0 0 0
0 0 0
0 0 0
-0.00139773 0.00136513 0
-0.00376705 -0.00248703 0
-0.0082275 -0.00363293 0
-0.00592999 -0.0136105 0
0.000370706 -0.00276531 0
-0.00151032 0.00380353 0
0.00105555 0.00913513 0
0.00504928 0.00143628 0
0.00208906 0.0011742 0
0 0 0
0 0 0
0.000892535 0.00132005 0
0.00108985 0.00164398 0
-0.00424116 0.00379995 0
-0.00761115 -0.000202666 0
-0.00564078 -0.00104455 0
-0.00562892 0.000931014 0
-0.0076876 0.000417739 0
-0.00672731 -0.000891395 0
-0.00462145 0.00127353 0
-0.00619766 0.000751582 0
-0.00673644 -0.000788383 0
-0.00534385 0.000106838 0
-0.00712681 0.00115156 0
-0.00811896 -0.000540563 0
-0.00571771 -0.00107853 0
-0.00573483 0.00122764 0
-0.00891748 0.00125034 0
-0.00642597 -0.000326544 0
-0.004 0.00203491 0
-0.00966014 -9.22789e-05 0
-0.0127422 -0.0167126 0
-0.00522976 -0.00966643 0
-0.00126491 0.00806198 0
-0.000247822 0.000373456 0
0.00115675 0.00164174 0
-9.04891e-05 0.00533762 0
0 0 0
0 0 0
0 0 0
-0.00238322 0.00639699 0
-0.00501966 0.0084969 0
-0.00536895 0.000206482 0
-0.0073256 -0.000907464 0
-0.00734367 0.000931168 0
-0.00528351 0.000398166 0
-0.00624171 -0.000959757 0
-0.00747137 0.000181839 0
-0.00513185 0.00104754 0
-0.00539933 0.000258181 0
-0.00802879 0.000352826 0
-0.00649793 0.00123237 0
-0.00549925 -0.00053234 0
-0.00790954 -0.00105972 0
-0.00788163 0.00108203 0
-0.00470796 0.00107939 0
-0.00579494 -0.00200338 0
-0.00702572 0.00168601 0
-0.00161837 -0.00192189 0
-0.00324523 -0.00802511 0
-0.00382234 -0.0234927 0
0.00171173 0.00757707 0
-0.00627713 0.00630563 0
-0.0142047 0.00180919 0
-0.00788084 0.00152685 0
-0.00104865 -0.00160579 0
0 0 0
0 0 0
0.00171931 0.00839174 0
0.00181803 0.00871419 0
0 0 0
0 0 0
0 0 0
0 0 0
0 0 0
0 0 0
0 0 0
0.000490319 0.00118731 0
0.000457229 0.000906145 0
0 0 0
0 0 0
0 0 0
0 0 0
0 0 0
0 0 0
0 0 0
-0.00136328 -0.00244881 0
0.00615187 -0.0147993 0
0.00798865 -0.0173611 0
-0.0020091 0.00779444 0
-0.01188 0.0237916 0
-0.0117279 -0.00295277 0
-0.0050216 -0.00678644 0
-0.00276474 -0.00648129 0
0 0 0
0 0 0
-0.000275036 0.00550314 0
0.0037503 0.00640293 0
0.00411302 0.00478556 0
0.000776239 0.000141483 0
0.000157032 0.000162685 0
0 0 0
0 0 0
0 0 0
0 0 0
0 0 0
0.000468505 0.00158017 0
0.000174148 0.000629059 0
-0.0005438 -2.96593e-05 0
-0.000320418 -0.000201633 0
0 0 0
0 0 0
0 0 0
0 0 0
0 0 0
-0.000797416 -0.0287985 0
-0.000448122 -0.00590484 0
-0.00639173 0.0201219 0
-0.00932253 0.0188608 0
-0.000867443 -0.00791322 0
0.00496996 -0.0104965 0
-0.00151842 -0.00112167 0
-0.00987508 -0.000564942 0
-0.00506503 -0.00252909 0
-0.000673928 0.00417839 0
-0.00295208 0.00671322 0
-0.00039878 0.00274835 0
0.004629 0.00103895 0
0.00187231 0.00182879 0
0.00153433 -0.00104544 0
0.00471219 -0.000951708 0
0.00378031 0.00163947 0
0.000739907 0.000453809 0
0.00284553 -0.00158037 0
0.00590007 0.00135914 0
0.00266342 0.00313451 0
0.00116849 -0.00117816 0
0.00650643 -0.00263402 0
0.00627312 0.00242584 0
-5.79301e-05 0.00156366 0
0.0032161 -0.0038052 0
0.00914078 3.39917e-05 0
0.00251016 0.00432664 0
-0.0110519 -0.0174246 0
-0.00809388 -0.018473 0
0.0232845 0.015066 0
0.0503398 0.00328215 0
0.0490271 -0.0040888 0
0.0353658 -0.00514007 0
0.0341434 0.0039986 0
0.0386982 -0.000702394 0
0.0338942 -0.00269186 0
0.0316955 0.00121802 0
0.039619 0.00397123 0
0.0421835 -0.00217444 0
0.0405215 0.000827124 0
0.0438669 0.00144915 0
0.0443828 -0.00116253 0
0.0412023 -0.00101383 0
0.0421306 0.00161203 0
0.0451773 0.000318761 0
0.0430691 -0.00176749 0
0.0409219 0.000321957 0
0.0451496 0.00246777 0
0.0473827 -0.00117404 0
0.0418022 -0.0025343 0
0.0417238 0.00251759 0
0.048061 0.00156007 0
0.0447853 -0.00389924 0
0.0388529 7.9986e-05 0
0.0454856 0.00429272 0
0.0489368 -0.00209455 0
0.0236184 -0.0152991 0

