# vtk DataFile Version 4.0
SiwiRVisFile
ASCII
DATASET STRUCTURED_POINTS
DIMENSIONS 28 14 1
ORIGIN 0 0 0
SPACING 1 1 1
POINT_DATA 392

SCALARS flags double 1
LOOKUP_TABLE default
1
1
1
1
1
1
1
1
1
1
1
1
1
1
1
1
1
1
1
1
1
1
1
1
1
1
1
1
1
1
1
1
1
1
1
1
1
1
1
1
1
1
1
1
1
1
1
1
1
1
1
1
1
1
1
1
1
1
1
1
1
1
1
1
1
1
1
1
1
1
1
1
1
1
1
1
1
1
1
1
1
1
1
1
1
1
1
1
1
1
1
1
1
1
1
1
1
1
1
1
1
1
1
1
1
1
1
1
1
1
1
1
1
1
1
1
1
1
1
1
1
1
1
1
1
1
1
1
1
1
1
1
1
1
1
1
1
1
1
1
1
1
1
1
1
1
1
1
1
1
1
1
1
1
1
1
1
1
1
1
1
1
1
1
1
1
1
1
1
1
1
1
1
1
1
1
1
1
1
1
1
1
1
1
1
1
1
1
1
1
1
1
1
1
1
1
1
1
1
1
1
1
1
1
1
1
1
1
1
1
1
1
1
1
1
1
1
1
1
1
1
1
1
1
1
1
1
1
1
1
1
1
1
1
1
1
1
1
1
1
1
1
1
1
1
1
1
1
1
1
1
1
1
1
1
1
1
1
1
1
1
1
1
1
1
1
1
1
1
1
1
1
1
1
1
1
1
1
1
1
1
1
1
1
1
1
1
1
1
1
1
1
1
1
1
1
1
1
1
1
1
1
1
1
1
1
1
1
1
1
1
1
1
1
1
1
1
1
1
1
1
1
1
1
1
1
1
1
1
1
1
1
1
1
1
1
1
1
1
1
1
1
1
1
1
1
1
1
1
1
1
1
1
1
1
1
1
1
1
1
1
1
1
1
1
1
1
1
1
1
1
1
1
1
1
1
1
1
1
1
1
1
1
1
1
1
1
1
1
1
1
1

SCALARS density double 1
LOOKUP_TABLE default
0.987837
0.980741
0.979945
0.998752
0.998193
0.998091
0.998056
1.00046
1.00123
1.00056
1.00299
1.00558
1.00504
1.00505
1.00609
1.00603
1.00589
1.00715
1.00827
1.00903
1.0077
1.01236
1.01751
1.01487
1.01086
1.01578
1.01794
1.01194
0.98499
0.978596
0.982713
0.999478
0.995624
0.998557
0.999981
0.999238
1.00016
1.00209
1.00317
1.00414
1.00565
1.00586
1.00549
1.00543
1.00654
1.00761
1.00753
1.0087
1.00858
1.01253
1.01632
1.01494
1.01259
1.01485
1.01637
1.01367
0.976575
0.987045
0
0
0
0
0
0
0
0
0
0
1.00563
1.00562
1.00535
0
0
0
0
0
0
0
1.01031
1.01375
1.01927
1.01328
1.01036
1.01775
0.96728
0.969728
0
0
0
0
0
0
0
0
0
0
0
1.0057
1.00553
0
0
0
0
0
0
0
0
1.01449
1.01467
1.01475
1.01438
1.01424
0.975276
0.961985
0
0
0
1.00497
0.999898
1.00525
1.00813
1.00488
1.00456
1.00778
1.00848
1.00463
1.00506
1.00918
1.00724
1.00435
1.00936
1.01207
1.00757
1.01142
1.01829
1.01538
1.00937
1.01605
1.0194
1.01114
0.967623
0.970605
0
0
0
0.999851
1.00526
1.00733
1.00279
1.00486
1.00955
1.00598
1.00432
1.00793
1.00797
1.0047
1.00623
1.00942
1.00794
1.00743
1.01133
1.01471
1.01259
1.01418
1.01626
1.01386
1.01308
1.01678
0.963582
0.977937
0.972023
0
0
1.00485
1.00867
1.00158
0
0
0
0
0
0
0
1.00505
1.00647
0
0
0
0
0
0
0
1.02041
1.01332
1.00939
1.01781
0.974026
0.964259
0.966784
0.974569
0
0
1.00005
1.00125
0
0
0
0
0
0
1.00653
1.00688
1.00508
0
0
0
0
0
0
1.01408
1.01082
1.01619
1.01872
1.00993
0.973716
0.961014
0.9668
0.978223
0
0
0.996096
1.00292
1.00182
0.990927
0.999168
1.00535
1.00392
1.0035
1.00609
1.00759
1.00597
1.0038
1.00691
1.00977
1.00581
1.01013
1.01637
1.0159
1.00977
1.0149
1.01932
1.01215
0.961589
0.978468
0.972382
0.958973
0
0
0
0.996972
0.998988
0.996392
1.00009
1.00052
1.00418
1.00773
1.00508
1.00388
1.00722
1.00806
1.00414
1.00556
1.0106
1.01352
1.00935
1.0143
1.01943
1.012
1.00765
1.02262
0.967478
0.974914
0.969879
0.963235
0.970717
0
0
0.990961
0.992572
0
0
0
0
0
0
0
1.00481
1.00747
0
0
0
0
0
0
0
1.01482
1.00978
1.01647
0.977689
0.953837
0.965033
0.983718
0.968654
0
0
0.986475
0.982933
0.99325
0.993797
0.986779
0
0
0
0
0
1.00059
1.00534
1.00555
1.00182
0
0
0
0
0
1.02901
1.0045
0.964472
0.966979
0.969561
0.969652
0.969146
0.976515
0.985331
0.989371
0.989071
0.989104
0.987754
0.993754
0.994295
0.99389
0.995289
1.00081
1.00148
1.00028
1.00451
1.00668
1.00177
1.00409
1.01437
1.01002
1.00362
1.0192
1.01199
1.0119
0.958419
0.984727
0.971799
0.957447
0.973089
0.982218
0.980327
0.988058
0.992793
0.987127
0.988006
0.994348
0.992991
0.995489
0.996169
0.997026
1.00262
1.0053
1.00013
1.0016
1.01062
1.0069
1.00093
1.01281
1.01989
1.00768
0.996524
1.03471

VECTORS velocity double
-0.000507844 0.00051028 0
-0.00553255 0.00239457 0
-0.00840289 -1.08552e-05 0
-0.008036 -0.000529975 0
-0.00707699 -0.00011946 0
-0.00772825 0.000472434 0
-0.00829889 -0.000122999 0
-0.00758715 -0.000414507 0
-0.0073289 0.0001547 0
-0.0079984 0.00021819 0
-0.00802428 -0.000244908 0
-0.00735959 -0.000310698 0
-0.00730304 0.0001856 0
-0.00687999 -0.000544635 0
-0.00610812 -4.98746e-05 0
-0.00644479 0.000157942 0
-0.00649994 -0.000207772 0
-0.00616642 -0.000119092 0
-0.00634692 0.000144623 0
-0.00659308 -6.35951e-05 0
-0.00625095 -0.000247095 0
-0.00622911 0.000282308 0
-0.0063282 -0.000331444 0
-0.00421763 -0.00108644 0
-0.00227428 -0.000213978 0
-0.00171221 -3.10082e-05 0
-0.0010121 -0.000557323 0
-4.30437e-05 -8.13184e-06 0
-0.00246351 0.00542499 0
-0.00726936 0.00717798 0
-0.00708457 0.000780429 0
-0.00745608 -0.000619638 0
-0.00840951 -4.52692e-05 0
-0.00776416 0.000523711 0
-0.00718722 -6.20328e-05 0
-0.00790561 -0.000346063 0
-0.00815709 0.000223803 0
-0.00749436 0.000304012 0
-0.00746192 -0.000207911 0
-0.00813291 -0.000320736 0
-0.00735591 -0.000797977 0
-0.00674594 -0.000693707 0
-0.00683223 -0.000403126 0
-0.00628763 0.000269585 0
-0.00623193 -7.82926e-05 0
-0.00656492 -2.32749e-05 0
-0.006384 0.000234794 0
-0.00613836 -4.86231e-06 0
-0.00648013 -0.000132873 0
-0.00650109 0.000184132 0
-0.00563631 -0.00194526 0
-0.00501529 -0.00278771 0
-0.00423115 -0.00227361 0
-0.0022685 -0.00119529 0
-0.00146824 -0.00152293 0
-0.000550095 -0.000981228 0
-0.000678465 0.00960861 0
-0.00125596 0.00586643 0
0 0 0
0 0 0
0 0 0
0 0 0
0 0 0
0 0 0
0 0 0
0 0 0
0 0 0
0 0 0
-0.00082629 -0.00100208 0
-0.000798281 -0.00119963 0
5.8913e-05 -0.000671249 0
0 0 0
0 0 0
0 0 0
0 0 0
0 0 0
0 0 0
0 0 0
-0.000769082 -0.00124033 0
-0.00245412 -0.00182079 0
-0.00297667 -0.00391595 0
-0.00166702 -0.00209398 0
-0.00108945 -0.00143199 0
-0.000330479 -0.00218208 0
0.00184399 0.00837205 0
0.00193849 0.00712886 0
0 0 0
0 0 0
0 0 0
0 0 0
0 0 0
0 0 0
0 0 0
0 0 0
0 0 0
0 0 0
0 0 0
-0.000658895 -0.00155921 0
-0.000639758 -0.00113358 0
0 0 0
0 0 0
0 0 0
0 0 0
0 0 0
0 0 0
0 0 0
0 0 0
-0.00166162 -0.000310744 0
-0.00391341 -0.0027941 0
-0.00356491 -0.00376848 0
-0.000963265 -0.00393864 0
0.000642881 -0.00197934 0
0.000268786 0.00496889 0
0.000301395 0.0105135 0
0 0 0
0 0 0
0 0 0
-0.00011331 2.49253e-05 0
-0.00180831 0.00114801 0
-0.00207763 -0.000903216 0
-0.00125763 0.000256696 0
-0.00216234 0.000343879 0
-0.00238266 -0.000210112 0
-0.00188291 -0.000132667 0
-0.00202952 0.000101637 0
-0.00242628 -0.000872499 0
-0.003172 -0.00119898 0
-0.00351089 -0.000401106 0
-0.00330623 -1.55031e-05 0
-0.0039702 0.000475093 0
-0.00481984 7.7968e-05 0
-0.00426102 -0.000559414 0
-0.00331765 -0.000134146 0
-0.0041744 0.00079678 0
-0.00555378 0.00053846 0
-0.00394696 -0.000685497 0
-0.00229904 -0.000874566 0
-0.00261626 -0.00512089 0
-0.00256443 -0.00640183 0
-0.00081776 -0.00196268 0
-0.00243417 0.0081662 0
-0.00246438 0.00732487 0
0 0 0
0 0 0
0 0 0
-0.00101423 0.00187457 0
-0.000529173 0.000779579 0
-0.00101326 0.000252069 0
-0.00285171 0.000314644 0
-0.00196795 0.000455138 0
-0.00172881 -0.00019426 0
-0.00224484 -8.70514e-05 0
-0.00208534 0.000194351 0
-0.00210928 -0.00017464 0
-0.00290844 -0.000164335 0
-0.00354072 -0.000172378 0
-0.00439042 0.000842742 0
-0.00434251 0.000611729 0
-0.0034958 0.000154319 0
-0.00404805 -0.000524293 0
-0.00499941 -6.6866e-05 0
-0.0041335 0.000681302 0
-0.0027633 0.00030425 0
-0.00373923 -0.00103017 0
-0.00252128 -0.00464159 0
0.00103511 -0.00529892 0
-0.000927638 -0.00374779 0
-0.00154274 -0.00564501 0
0.000571636 0.0110968 0
0.000408554 0.00426847 0
-0.000155936 0.000134865 0
0 0 0
0 0 0
0.00110902 0.00172749 0
0.000557556 0.000449039 0
-0.000455881 0.00194187 0
0 0 0
0 0 0
0 0 0
0 0 0
0 0 0
0 0 0
0 0 0
-0.000931879 0.00112036 0
-0.000895263 0.000285738 0
0 0 0
0 0 0
0 0 0
0 0 0
0 0 0
0 0 0
0 0 0
-0.00166655 -0.00666887 0
-0.00298581 -0.00499447 0
2.73534e-05 -0.00377801 0
0.00159492 -0.00553246 0
0.00282438 0.00609047 0
0.00357724 0.00917941 0
0.000512911 0.000843075 0
-0.000588386 -0.000655666 0
0 0 0
0 0 0
0.000918652 0.00236392 0
0.00112614 0.00175726 0
0 0 0
0 0 0
0 0 0
0 0 0
0 0 0
0 0 0
-0.000880813 0.0010606 0
-0.000538191 0.000704431 0
0.000386302 -0.000299541 0
0 0 0
0 0 0
0 0 0
0 0 0
0 0 0
0 0 0
-0.00139984 0.00136277 0
-0.00376543 -0.00248786 0
-0.00822883 -0.00363199 0
-0.00592865 -0.0136079 0
0.000369259 -0.00276247 0
-0.0015093 0.00379989 0
0.00105488 0.00913066 0
0.00504972 0.00143111 0
0.00208891 0.00116809 0
0 0 0
0 0 0
0.000890324 0.00131788 0
0.00109226 0.00164242 0
-0.00424352 0.0037988 0
-0.00760943 -0.000203508 0
-0.00564187 -0.00104535 0
-0.00562839 0.000930344 0
-0.00768752 0.00041766 0
-0.00672794 -0.000892062 0
-0.00462049 0.00127416 0
-0.00619868 0.000752342 0
-0.00673544 -0.000787352 0
-0.00534524 0.00010893 0
-0.00712484 0.00115593 0
-0.00812106 -0.000534855 0
-0.00571512 -0.00107071 0
-0.00573782 0.00123137 0
-0.00891501 0.00125372 0
-0.00642754 -0.00032455 0
-0.00399868 0.00203467 0
-0.00966094 -9.43951e-05 0
-0.0127427 -0.016715 0
-0.00522858 -0.00967095 0
-0.00126533 0.00806561 0
-0.000248399 0.000378608 0
0.00115819 0.00164771 0
-9.13724e-05 0.00534503 0
0 0 0
0 0 0
0 0 0
-0.00237931 0.00639869 0
-0.00502258 0.00849823 0
-0.005367 0.000207479 0
-0.00732675 -0.000906706 0
-0.00734321 0.00093186 0
-0.00528337 0.000398276 0
-0.00624248 -0.000959082 0
-0.00747006 0.000180947 0
-0.00513365 0.00104702 0
-0.00539752 0.000257621 0
-0.0080304 0.000351366 0
-0.00649629 0.00122802 0
-0.00550137 -0.000537556 0
-0.00790679 -0.00106688 0
-0.00788398 0.0010779 0
-0.00470611 0.00107553 0
-0.00579609 -0.00200495 0
-0.00702583 0.00168671 0
-0.00161745 -0.00191893 0
-0.00324566 -0.00802262 0
-0.00382297 -0.0234882 0
0.00171639 0.00757266 0
-0.00628015 0.00630099 0
-0.0142038 0.00180248 0
-0.00788123 0.00151845 0
-0.00104752 -0.00161526 0
0 0 0
0 0 0
0.00172314 0.00838889 0
0.00181516 0.00871136 0
0 0 0
0 0 0
0 0 0
0 0 0
0 0 0
0 0 0
0 0 0
0.000492397 0.00118733 0
0.000455141 0.000905822 0
0 0 0
0 0 0
0 0 0
0 0 0
0 0 0
0 0 0
0 0 0
-0.00136427 -0.0024524 0
0.00614946 -0.0148025 0
0.00799482 -0.0173651 0
-0.00200683 0.00779954 0
-0.0118807 0.023797 0
-0.0117267 -0.00294409 0
-0.0050219 -0.00677886 0
-0.00276314 -0.00647502 0
0 0 0
0 0 0
-0.000271177 0.00550795 0
0.00374799 0.00640804 0
0.00411609 0.0047919 0
0.000773019 0.000147128 0
0.000161133 0.000167695 0
0 0 0
0 0 0
0 0 0
0 0 0
0 0 0
0.000469066 0.00158387 0
0.000175821 0.000635294 0
-0.000545902 -2.22938e-05 0
-0.000317213 -0.000196886 0
0 0 0
0 0 0
0 0 0
0 0 0
0 0 0
-0.000797016 -0.0287945 0
-0.000446898 -0.00590038 0
-0.00638349 0.0201155 0
-0.0093242 0.018851 0
-0.000866995 -0.00792247 0
0.00497113 -0.0105026 0
-0.00151977 -0.00112617 0
-0.00987461 -0.000568977 0
-0.00506681 -0.00253662 0
-0.000672006 0.00417189 0
-0.00295368 0.00670638 0
-0.00039672 0.00274108 0
0.00462813 0.0010325 0
0.00187282 0.00182322 0
0.00153393 -0.0010495 0
0.00471136 -0.000959251 0
0.0037819 0.0016351 0
0.000738014 0.000445732 0
0.00284652 -0.00158699 0
0.00589914 0.00135254 0
0.00266533 0.00312796 0
0.00116748 -0.00118596 0
0.00650713 -0.00263836 0
0.00627297 0.00242155 0
-5.86282e-05 0.00155902 0
0.00321536 -0.00381552 0
0.00914281 3.09836e-05 0
0.00251003 0.0043185 0
-0.0110538 -0.0174292 0
-0.00809096 -0.0184758 0
0.0232863 0.0150795 0
0.0503419 0.00329361 0
0.0490265 -0.00408169 0
0.0353649 -0.00513514 0
0.0341442 0.00400519 0
0.0386979 -0.000697704 0
0.0338939 -0.00268587 0
0.0316954 0.00122519 0
0.0396195 0.00397985 0
0.0421836 -0.00216739 0
0.0405214 0.000834903 0
0.0438675 0.00145607 0
0.0443817 -0.00115807 0
0.0412033 -0.00100674 0
0.0421295 0.00161783 0
0.0451785 0.000326365 0
0.0430679 -0.0017624 0
0.0409227 0.000329221 0
0.0451496 0.00247549 0
0.0473832 -0.00116681 0
0.041801 -0.00252985 0
0.0417248 0.00252386 0
0.0480605 0.00156592 0
0.0447861 -0.00389256 0
0.038851 8.45478e-05 0
0.0454885 0.00430192 0
0.0489341 -0.00209046 0
0.0236254 -0.0153013 0

