# vtk DataFile Version 4.0
SiwiRVisFile
ASCII
DATASET STRUCTURED_POINTS
DIMENSIONS 28 14 1
ORIGIN 0 0 0
SPACING 1 1 1
POINT_DATA 392

SCALARS flags double 1
LOOKUP_TABLE default
1
1
1
1
1
1
1
1
1
1
1
1
1
1
1
1
1
1
1
1
1
1
1
1
1
1
1
1
1
1
1
1
1
1
1
1
1
1
1
1
1
1
1
1
1
1
1
1
1
1
1
1
1
1
1
1
1
1
1
1
1
1
1
1
1
1
1
1
1
1
1
1
1
1
1
1
1
1
1
1
1
1
1
1
1
1
1
1
1
1
1
1
1
1
1
1
1
1
1
1
1
1
1
1
1
1
1
1
1
1
1
1
1
1
1
1
1
1
1
1
1
1
1
1
1
1
1
1
1
1
1
1
1
1
1
1
1
1
1
1
1
1
1
1
1
1
1
1
1
1
1
1
1
1
1
1
1
1
1
1
1
1
1
1
1
1
1
1
1
1
1
1
1
1
1
1
1
1
1
1
1
1
1
1
1
1
1
1
1
1
1
1
1
1
1
1
1
1
1
1
1
1
1
1
1
1
1
1
1
1
1
1
1
1
1
1
1
1
1
1
1
1
1
1
1
1
1
1
1
1
1
1
1
1
1
1
1
1
1
1
1
1
1
1
1
1
1
1
1
1
1
1
1
1
1
1
1
1
1
1
1
1
1
1
1
1
1
1
1
1
1
1
1
1
1
1
1
1
1
1
1
1
1
1
1
1
1
1
1
1
1
1
1
1
1
1
1
1
1
1
1
1
1
1
1
1
1
1
1
1
1
1
1
1
1
1
1
1
1
1
1
1
1
1
1
1
1
1
1
1
1
1
1
1
1
1
1
1
1
1
1
1
1
1
1
1
1
1
1
1
1
1
1
1
1
1
1
1
1
1
1
1
1
1
1
1
1
1
1
1
1
1
1
1
1
1
1
1
1
1
1
1
1
1
1
1
1
1
1
1
1
1

SCALARS density double 1
LOOKUP_TABLE default
0.987837
0.980741
0.979945
0.998752
0.998193
0.998091
0.998056
1.00046
1.00123
1.00056
1.00299
1.00559
1.00504
1.00505
1.00609
1.00603
1.00589
1.00715
1.00827
1.00903
1.0077
1.01236
1.01751
1.01487
1.01086
1.01578
1.01794
1.01194
0.98499
0.978596
0.982713
0.999478
0.995625
0.998557
0.999981
0.999238
1.00016
1.00209
1.00317
1.00414
1.00565
1.00586
1.00549
1.00543
1.00654
1.00761
1.00753
1.0087
1.00858
1.01253
1.01632
1.01494
1.01259
1.01485
1.01637
1.01367
0.976575
0.987045
0
0
0
0
0
0
0
0
0
0
1.00563
1.00562
1.00535
0
0
0
0
0
0
0
1.01031
1.01375
1.01927
1.01328
1.01036
1.01775
0.96728
0.969728
0
0
0
0
0
0
0
0
0
0
0
1.0057
1.00553
0
0
0
0
0
0
0
0
1.01449
1.01467
1.01475
1.01438
1.01424
0.975276
0.961985
0
0
0
1.00497
0.999898
1.00525
1.00813
1.00488
1.00456
1.00778
1.00848
1.00463
1.00506
1.00918
1.00724
1.00435
1.00936
1.01207
1.00757
1.01142
1.01829
1.01538
1.00937
1.01605
1.0194
1.01114
0.967623
0.970605
0
0
0
0.999851
1.00526
1.00733
1.00279
1.00486
1.00955
1.00598
1.00432
1.00793
1.00797
1.0047
1.00623
1.00942
1.00794
1.00743
1.01133
1.01471
1.01259
1.01418
1.01626
1.01386
1.01308
1.01678
0.963582
0.977937
0.972023
0
0
1.00485
1.00867
1.00158
0
0
0
0
0
0
0
1.00505
1.00647
0
0
0
0
0
0
0
1.02041
1.01332
1.00939
1.01781
0.974026
0.964259
0.966784
0.974569
0
0
1.00005
1.00125
0
0
0
0
0
0
1.00653
1.00688
1.00508
0
0
0
0
0
0
1.01408
1.01082
1.01619
1.01872
1.00993
0.973716
0.961014
0.9668
0.978223
0
0
0.996096
1.00292
1.00182
0.990927
0.999168
1.00535
1.00392
1.0035
1.00609
1.00759
1.00597
1.0038
1.00691
1.00977
1.00581
1.01013
1.01637
1.0159
1.00977
1.0149
1.01932
1.01215
0.961589
0.978468
0.972381
0.958973
0
0
0
0.996972
0.998988
0.996392
1.00009
1.00052
1.00418
1.00773
1.00508
1.00388
1.00722
1.00806
1.00414
1.00556
1.0106
1.01352
1.00936
1.0143
1.01943
1.012
1.00765
1.02262
0.967478
0.974914
0.969879
0.963235
0.970717
0
0
0.990961
0.992572
0
0
0
0
0
0
0
1.00481
1.00747
0
0
0
0
0
0
0
1.01482
1.00978
1.01647
0.977689
0.953837
0.965033
0.983718
0.968654
0
0
0.986475
0.982933
0.99325
0.993797
0.986779
0
0
0
0
0
1.00059
1.00534
1.00555
1.00182
0
0
0
0
0
1.02901
1.0045
0.964472
0.966979
0.969561
0.969652
0.969146
0.976515
0.985331
0.989371
0.989071
0.989104
0.987754
0.993754
0.994295
0.99389
0.995289
1.00081
1.00148
1.00028
1.00451
1.00668
1.00177
1.00409
1.01437
1.01002
1.00362
1.0192
1.01199
1.0119
0.958419
0.984727
0.971799
0.957447
0.973089
0.982218
0.980327
0.988058
0.992793
0.987127
0.988006
0.994348
0.992991
0.995489
0.996169
0.997026
1.00262
1.0053
1.00013
1.0016
1.01062
1.0069
1.00093
1.01281
1.01989
1.00768
0.996524
1.03471

VECTORS velocity double
-0.000511289 0.000513665 0
-0.00552989 0.00239875 0
-0.00840454 -4.03685e-06 0
-0.00803432 -0.000519637 0
-0.00707848 -0.00010982 0
-0.00772714 0.000482542 0
-0.00829953 -0.000113426 0
-0.00758665 -0.000405086 0
-0.00732917 0.000162918 0
-0.00799844 0.000224867 0
-0.00802386 -0.000239152 0
-0.00736017 -0.000307313 0
-0.00730237 0.000187307 0
-0.00688064 -0.000545599 0
-0.00610719 -5.38698e-05 0
-0.00644593 0.000148322 0
-0.00649888 -0.000222633 0
-0.0061677 -0.000138746 0
-0.0063455 0.000123078 0
-0.00659472 -8.87215e-05 0
-0.00624965 -0.000273089 0
-0.00623016 0.000256097 0
-0.00632774 -0.000357193 0
-0.0042188 -0.00111305 0
-0.00227272 -0.000237399 0
-0.00171312 -5.31262e-05 0
-0.00101149 -0.000579647 0
-4.35371e-05 -2.99765e-05 0
-0.00246647 0.00542148 0
-0.00726694 0.00717321 0
-0.00708665 0.000773407 0
-0.00745426 -0.000629326 0
-0.00841075 -5.4747e-05 0
-0.00776301 0.000513113 0
-0.00718817 -7.15856e-05 0
-0.00790504 -0.000355131 0
-0.00815717 0.000215478 0
-0.00749453 0.000297123 0
-0.00746145 -0.000213555 0
-0.00813368 -0.000323978 0
-0.00735487 -0.000799745 0
-0.00674676 -0.000693076 0
-0.00683142 -0.000399692 0
-0.00628841 0.00027911 0
-0.0062311 -6.37856e-05 0
-0.00656625 -3.75164e-06 0
-0.00638275 0.000256723 0
-0.00613966 2.02096e-05 0
-0.00647894 -0.00010737 0
-0.00650224 0.000210559 0
-0.00563526 -0.0019209 0
-0.00501609 -0.00276441 0
-0.0042303 -0.00225185 0
-0.00226907 -0.00117476 0
-0.0014679 -0.00150286 0
-0.000550259 -0.000960825 0
-0.000681986 0.00961274 0
-0.00125296 0.00587154 0
0 0 0
0 0 0
0 0 0
0 0 0
0 0 0
0 0 0
0 0 0
0 0 0
0 0 0
0 0 0
-0.000824965 -0.00100015 0
-0.000799931 -0.00119937 0
6.06447e-05 -0.000673513 0
0 0 0
0 0 0
0 0 0
0 0 0
0 0 0
0 0 0
0 0 0
-0.000769019 -0.00126314 0
-0.0024544 -0.00184067 0
-0.00297674 -0.00393433 0
-0.00166714 -0.00211122 0
-0.00108916 -0.00144879 0
-0.000330752 -0.00219899 0
0.00184439 0.00836759 0
0.00193824 0.00712423 0
0 0 0
0 0 0
0 0 0
0 0 0
0 0 0
0 0 0
0 0 0
0 0 0
0 0 0
0 0 0
0 0 0
-0.000660866 -0.00156005 0
-0.000637758 -0.00113265 0
0 0 0
0 0 0
0 0 0
0 0 0
0 0 0
0 0 0
0 0 0
0 0 0
-0.00166057 -0.000293445 0
-0.00391405 -0.00277976 0
-0.0035644 -0.00375557 0
-0.000964081 -0.00392591 0
0.000644244 -0.00196701 0
0.000266276 0.00497312 0
0.000304196 0.0105178 0
0 0 0
0 0 0
0 0 0
-0.000112257 2.72775e-05 0
-0.00180923 0.00115034 0
-0.0020769 -0.000900504 0
-0.00125798 0.000260135 0
-0.00216254 0.000347387 0
-0.00238172 -0.000205457 0
-0.0018845 -0.00012953 0
-0.00202759 0.000104353 0
-0.00242827 -0.000871739 0
-0.00317 -0.00119924 0
-0.00351275 -0.000403001 0
-0.00330437 -1.91762e-05 0
-0.00397185 0.000467928 0
-0.00481866 6.66424e-05 0
-0.00426216 -0.000573984 0
-0.00331687 -0.000150298 0
-0.00417441 0.000780874 0
-0.00555482 0.000521008 0
-0.00394593 -0.000700282 0
-0.00230062 -0.000885829 0
-0.00261465 -0.00512924 0
-0.00256548 -0.00640966 0
-0.000817494 -0.00197034 0
-0.00243297 0.00816246 0
-0.00246532 0.00732066 0
0 0 0
0 0 0
0 0 0
-0.00101344 0.00187223 0
-0.000529747 0.000777095 0
-0.00101281 0.000249416 0
-0.00285198 0.000311269 0
-0.00196807 0.000451537 0
-0.00172805 -0.000198843 0
-0.00224619 -9.02034e-05 0
-0.00208347 0.000191414 0
-0.00211151 -0.000175363 0
-0.00290615 -0.000164134 0
-0.00354262 -0.000170694 0
-0.00438879 0.00084597 0
-0.00434389 0.000619123 0
-0.0034948 0.000165668 0
-0.00404876 -0.000510492 0
-0.00499922 -5.08751e-05 0
-0.00413369 0.00069838 0
-0.0027637 0.000322063 0
-0.00373773 -0.00101767 0
-0.00252248 -0.00463362 0
0.00103693 -0.00529449 0
-0.000930145 -0.00374438 0
-0.00153993 -0.00564203 0
0.000570288 0.0111009 0
0.000408986 0.00427251 0
-0.000154906 0.00014103 0
0 0 0
0 0 0
0.00110898 0.00172981 0
0.000557742 0.000451448 0
-0.000456221 0.00194452 0
0 0 0
0 0 0
0 0 0
0 0 0
0 0 0
0 0 0
0 0 0
-0.000933773 0.00111905 0
-0.000893619 0.000283339 0
0 0 0
0 0 0
0 0 0
0 0 0
0 0 0
0 0 0
0 0 0
-0.00167049 -0.00667318 0
-0.00298298 -0.00499578 0
2.58422e-05 -0.00377764 0
0.00159588 -0.00553184 0
0.00282467 0.00608556 0
0.00357714 0.00917507 0
0.000512555 0.000836834 0
-0.000587878 -0.0006638 0
0 0 0
0 0 0
0.000920445 0.00236143 0
0.00112428 0.00175482 0
0 0 0
0 0 0
0 0 0
0 0 0
0 0 0
0 0 0
-0.00088029 0.00106068 0
-0.00053835 0.000705494 0
0.000386199 -0.000297917 0
0 0 0
0 0 0
0 0 0
0 0 0
0 0 0
0 0 0
-0.00139635 0.00136668 0
-0.00376818 -0.00248632 0
-0.00822657 -0.00363292 0
-0.00593085 -0.0136112 0
0.000371641 -0.00276605 0
-0.0015106 0.00380472 0
0.00105572 0.00913665 0
0.00504917 0.00143811 0
0.00208906 0.00117643 0
0 0 0
0 0 0
0.000893588 0.00132085 0
0.0010887 0.0016445 0
-0.00423995 0.00380037 0
-0.0076122 -0.000202474 0
-0.00563989 -0.00104408 0
-0.00562967 0.000931065 0
-0.00768708 0.000418032 0
-0.00672754 -0.000891084 0
-0.00462141 0.0012736 0
-0.00619755 0.000751568 0
-0.00673666 -0.000788536 0
-0.00534334 0.000106111 0
-0.00712771 0.00114969 0
-0.00811785 -0.000542964 0
-0.00571921 -0.00108238 0
-0.00573297 0.00122584 0
-0.0089192 0.00124811 0
-0.00642466 -0.000327821 0
-0.00400119 0.00203448 0
-0.00965924 -9.17466e-05 0
-0.0127424 -0.0167117 0
-0.00522991 -0.00966479 0
-0.00126476 0.00806075 0
-0.000247622 0.000371654 0
0.00115626 0.00163959 0
-9.01996e-05 0.00533489 0
0 0 0
0 0 0
0 0 0
-0.00238511 0.00639642 0
-0.00501817 0.00849645 0
-0.00537009 0.000206189 0
-0.0073247 -0.000907934 0
-0.00734437 0.000931126 0
-0.00528303 0.000397874 0
-0.00624191 -0.000960048 0
-0.00747148 0.000181854 0
-0.00513143 0.00104748 0
-0.00539985 0.000258209 0
-0.00802823 0.000353327 0
-0.00649864 0.00123422 0
-0.00549814 -0.000530159 0
-0.00791109 -0.00105618 0
-0.00788016 0.00108403 0
-0.00470938 0.00108191 0
-0.0057937 -0.00200241 0
-0.00702642 0.00168645 0
-0.00161802 -0.00192276 0
-0.0032457 -0.00802601 0
-0.00382164 -0.0234944 0
0.00171004 0.0075786 0
-0.00627603 0.00630728 0
-0.014205 0.00181163 0
-0.00788069 0.00152996 0
-0.00104906 -0.00160226 0
0 0 0
0 0 0
0.00171756 0.00839278 0
0.00181948 0.00871518 0
0 0 0
0 0 0
0 0 0
0 0 0
0 0 0
0 0 0
0 0 0
0.00048967 0.00118748 0
0.000457903 0.000906342 0
0 0 0
0 0 0
0 0 0
0 0 0
0 0 0
0 0 0
0 0 0
-0.00136255 -0.00244773 0
0.00615236 -0.0147982 0
0.00798709 -0.0173596 0
-0.00200997 0.00779262 0
-0.0118798 0.0237897 0
-0.0117284 -0.00295596 0
-0.00502149 -0.00678925 0
-0.00276533 -0.00648363 0
0 0 0
0 0 0
-0.000276649 0.00550135 0
0.00375133 0.00640109 0
0.00411169 0.00478315 0
0.000777592 0.000139327 0
0.000155373 0.000160754 0
0 0 0
0 0 0
0 0 0
0 0 0
0 0 0
0.000468123 0.00157865 0
0.000173617 0.000626533 0
-0.000543062 -3.26486e-05 0
-0.000321616 -0.00020351 0
0 0 0
0 0 0
0 0 0
0 0 0
0 0 0
-0.000797636 -0.0288 0
-0.00044846 -0.0059065 0
-0.00639474 0.0201243 0
-0.00932191 0.0188644 0
-0.000867605 -0.00790984 0
0.00496953 -0.0104942 0
-0.00151792 -0.00111998 0
-0.00987528 -0.000563441 0
-0.00506432 -0.00252623 0
-0.000674715 0.00418082 0
-0.00295139 0.00671574 0
-0.000399629 0.0027511 0
0.0046294 0.00104139 0
0.00187205 0.00183093 0
0.00153451 -0.00104392 0
0.00471251 -0.00094875 0
0.00377968 0.00164113 0
0.00074066 0.000457006 0
0.00284514 -0.00157786 0
0.00590044 0.00136181 0
0.00266267 0.00313713 0
0.00116886 -0.00117499 0
0.00650616 -0.00263233 0
0.0062732 0.00242769 0
-5.77008e-05 0.00156538 0
0.00321646 -0.00380086 0
0.00913988 3.50768e-05 0
0.00251034 0.0043299 0
-0.0110512 -0.0174228 0
-0.00809505 -0.0184718 0
0.0232839 0.015061 0
0.050339 0.00327798 0
0.0490273 -0.0040914 0
0.0353662 -0.00514188 0
0.0341431 0.00399613 0
0.0386984 -0.000704149 0
0.0338943 -0.00269413 0
0.0316956 0.00121535 0
0.0396188 0.00396802 0
0.0421835 -0.00217709 0
0.0405216 0.000824174 0
0.0438667 0.00144648 0
0.0443832 -0.00116423 0
0.0412018 -0.00101661 0
0.042131 0.0016098 0
0.0451768 0.000315767 0
0.0430696 -0.00176943 0
0.0409216 0.000319027 0
0.0451496 0.00246469 0
0.0473824 -0.00117698 0
0.0418027 -0.00253605 0
0.0417234 0.00251498 0
0.0480613 0.00155784 0
0.0447849 -0.00390205 0
0.0388538 7.8279e-05 0
0.0454843 0.00428907 0
0.048938 -0.00209609 0
0.0236158 -0.0152985 0

