# vtk DataFile Version 4.0
SiwiRVisFile
ASCII
DATASET STRUCTURED_POINTS
DIMENSIONS 28 14 1
ORIGIN 0 0 0
SPACING 1 1 1
POINT_DATA 392

SCALARS flags double 1
LOOKUP_TABLE default
1
1
1
1
1
1
1
1
1
1
1
1
1
1
1
1
1
1
1
1
1
1
1
1
1
1
1
1
1
1
1
1
1
1
1
1
1
1
1
1
1
1
1
1
1
1
1
1
1
1
1
1
1
1
1
1
1
1
1
1
1
1
1
1
1
1
1
1
1
1
1
1
1
1
1
1
1
1
1
1
1
1
1
1
1
1
1
1
1
1
1
1
1
1
1
1
1
1
1
1
1
1
1
1
1
1
1
1
1
1
1
1
1
1
1
1
1
1
1
1
1
1
1
1
1
1
1
1
1
1
1
1
1
1
1
1
1
1
1
1
1
1
1
1
1
1
1
1
1
1
1
1
1
1
1
1
1
1
1
1
1
1
1
1
1
1
1
1
1
1
1
1
1
1
1
1
1
1
1
1
1
1
1
1
1
1
1
1
1
1
1
1
1
1
1
1
1
1
1
1
1
1
1
1
1
1
1
1
1
1
1
1
1
1
1
1
1
1
1
1
1
1
1
1
1
1
1
1
1
1
1
1
1
1
1
1
1
1
1
1
1
1
1
1
1
1
1
1
1
1
1
1
1
1
1
1
1
1
1
1
1
1
1
1
1
1
1
1
1
1
1
1
1
1
1
1
1
1
1
1
1
1
1
1
1
1
1
1
1
1
1
1
1
1
1
1
1
1
1
1
1
1
1
1
1
1
1
1
1
1
1
1
1
1
1
1
1
1
1
1
1
1
1
1
1
1
1
1
1
1
1
1
1
1
1
1
1
1
1
1
1
1
1
1
1
1
1
1
1
1
1
1
1
1
1
1
1
1
1
1
1
1
1
1
1
1
1
1
1
1
1
1
1
1
1
1
1
1
1
1
1
1
1
1
1
1
1
1
1
1
1
1

SCALARS density double 1
LOOKUP_TABLE default
0.987837
0.980741
0.979945
0.998752
0.998193
0.998091
0.998056
1.00046
1.00123
1.00056
1.00299
1.00558
1.00504
1.00505
1.00609
1.00603
1.00589
1.00715
1.00827
1.00903
1.0077
1.01236
1.01751
1.01487
1.01086
1.01578
1.01794
1.01194
0.98499
0.978596
0.982713
0.999478
0.995624
0.998557
0.999981
0.999238
1.00016
1.00209
1.00317
1.00414
1.00565
1.00586
1.00549
1.00543
1.00654
1.00761
1.00753
1.0087
1.00858
1.01253
1.01632
1.01494
1.01259
1.01485
1.01637
1.01367
0.976575
0.987045
0
0
0
0
0
0
0
0
0
0
1.00563
1.00562
1.00535
0
0
0
0
0
0
0
1.01031
1.01375
1.01927
1.01328
1.01036
1.01775
0.96728
0.969728
0
0
0
0
0
0
0
0
0
0
0
1.0057
1.00553
0
0
0
0
0
0
0
0
1.01449
1.01467
1.01475
1.01438
1.01424
0.975276
0.961985
0
0
0
1.00497
0.999898
1.00525
1.00813
1.00488
1.00456
1.00778
1.00848
1.00463
1.00506
1.00918
1.00724
1.00435
1.00936
1.01207
1.00757
1.01142
1.01829
1.01538
1.00937
1.01605
1.0194
1.01114
0.967623
0.970605
0
0
0
0.999851
1.00526
1.00733
1.00279
1.00486
1.00955
1.00598
1.00432
1.00793
1.00797
1.0047
1.00623
1.00942
1.00794
1.00743
1.01133
1.01471
1.01259
1.01418
1.01626
1.01386
1.01308
1.01678
0.963582
0.977937
0.972023
0
0
1.00485
1.00867
1.00158
0
0
0
0
0
0
0
1.00505
1.00647
0
0
0
0
0
0
0
1.02041
1.01332
1.00939
1.01781
0.974026
0.964259
0.966784
0.974569
0
0
1.00005
1.00125
0
0
0
0
0
0
1.00653
1.00688
1.00508
0
0
0
0
0
0
1.01408
1.01082
1.01619
1.01872
1.00993
0.973716
0.961013
0.9668
0.978223
0
0
0.996096
1.00292
1.00182
0.990927
0.999168
1.00535
1.00392
1.0035
1.00609
1.00759
1.00597
1.0038
1.00691
1.00977
1.00581
1.01013
1.01637
1.0159
1.00977
1.0149
1.01932
1.01215
0.961589
0.978468
0.972382
0.958973
0
0
0
0.996972
0.998988
0.996392
1.00009
1.00052
1.00418
1.00773
1.00508
1.00388
1.00722
1.00806
1.00414
1.00556
1.0106
1.01352
1.00936
1.0143
1.01943
1.012
1.00765
1.02262
0.967478
0.974914
0.969879
0.963235
0.970717
0
0
0.990961
0.992572
0
0
0
0
0
0
0
1.00481
1.00747
0
0
0
0
0
0
0
1.01482
1.00978
1.01647
0.977689
0.953838
0.965032
0.983718
0.968654
0
0
0.986475
0.982933
0.99325
0.993797
0.986779
0
0
0
0
0
1.00059
1.00534
1.00555
1.00182
0
0
0
0
0
1.02901
1.0045
0.964472
0.966979
0.969561
0.969652
0.969146
0.976515
0.985331
0.989371
0.989071
0.989104
0.987754
0.993754
0.994295
0.99389
0.995289
1.00081
1.00148
1.00028
1.00451
1.00668
1.00177
1.00409
1.01437
1.01002
1.00362
1.0192
1.01199
1.0119
0.958419
0.984727
0.971799
0.957447
0.973089
0.982218
0.980327
0.988058
0.992793
0.987127
0.988006
0.994348
0.992991
0.995489
0.996169
0.997027
1.00262
1.0053
1.00013
1.0016
1.01062
1.0069
1.00093
1.01281
1.01989
1.00768
0.996524
1.03471

VECTORS velocity double
-0.000507091 0.000509323 0
-0.00553309 0.0023935 0
-0.00840264 -1.26039e-05 0
-0.00803625 -0.000532417 0
-0.00707682 -0.000121775 0
-0.0077283 0.00047035 0
-0.00829896 -0.000124978 0
-0.00758705 -0.000416114 0
-0.00732904 0.000153352 0
-0.00799821 0.000217444 0
-0.0080245 -0.000245417 0
-0.00735936 -0.000310499 0
-0.00730326 0.000186171 0
-0.00687981 -0.000543383 0
-0.00610835 -4.782e-05 0
-0.00644454 0.000161391 0
-0.00650011 -0.000202979 0
-0.00616621 -0.000113487 0
-0.00634714 0.000150404 0
-0.00659283 -5.74741e-05 0
-0.00625112 -0.000241121 0
-0.00622902 0.000287786 0
-0.00632818 -0.000326377 0
-0.00421752 -0.00108154 0
-0.00227448 -0.000209917 0
-0.00171213 -2.73997e-05 0
-0.00101213 -0.000553782 0
-4.3016e-05 -4.68526e-06 0
-0.00246291 0.00542597 0
-0.00726984 0.00717924 0
-0.00708416 0.000782216 0
-0.00745638 -0.00061736 0
-0.0084094 -4.29915e-05 0
-0.00776422 0.0005259 0
-0.00718723 -6.00601e-05 0
-0.00790553 -0.00034452 0
-0.00815726 0.000225169 0
-0.00749415 0.000304788 0
-0.00746217 -0.000207415 0
-0.00813262 -0.000320946 0
-0.00735623 -0.000798518 0
-0.00674572 -0.000694833 0
-0.00683241 -0.000404983 0
-0.00628748 0.000266152 0
-0.00623204 -8.29769e-05 0
-0.00656469 -2.88399e-05 0
-0.00638417 0.000228911 0
-0.00613819 -1.09718e-05 0
-0.00648027 -0.000138731 0
-0.00650098 0.00017862 0
-0.00563642 -0.00195002 0
-0.00501524 -0.00279198 0
-0.00423122 -0.00227735 0
-0.00226848 -0.00119862 0
-0.00146822 -0.00152608 0
-0.000550159 -0.0009844 0
-0.000677605 0.00960748 0
-0.00125667 0.00586504 0
0 0 0
0 0 0
0 0 0
0 0 0
0 0 0
0 0 0
0 0 0
0 0 0
0 0 0
0 0 0
-0.000826616 -0.00100162 0
-0.000797874 -0.00119879 0
5.84986e-05 -0.00066979 0
0 0 0
0 0 0
0 0 0
0 0 0
0 0 0
0 0 0
0 0 0
-0.000768956 -0.00123588 0
-0.00245418 -0.00181717 0
-0.00297656 -0.00391284 0
-0.0016671 -0.00209125 0
-0.00108942 -0.00142944 0
-0.000330487 -0.00217953 0
0.00184388 0.00837328 0
0.00193855 0.00713016 0
0 0 0
0 0 0
0 0 0
0 0 0
0 0 0
0 0 0
0 0 0
0 0 0
0 0 0
0 0 0
0 0 0
-0.000658515 -0.00155979 0
-0.000640132 -0.00113457 0
0 0 0
0 0 0
0 0 0
0 0 0
0 0 0
0 0 0
0 0 0
0 0 0
-0.00166194 -0.000313866 0
-0.00391319 -0.00279646 0
-0.00356508 -0.00377042 0
-0.000963042 -0.00394045 0
0.000642546 -0.00198107 0
0.000269609 0.00496773 0
0.000300488 0.0105124 0
0 0 0
0 0 0
0 0 0
-0.000113246 2.43582e-05 0
-0.00180838 0.00114746 0
-0.00207755 -0.000903835 0
-0.00125775 0.000255984 0
-0.00216215 0.000343185 0
-0.00238295 -0.000210903 0
-0.00188255 -0.000133063 0
-0.00202988 0.000101604 0
-0.00242594 -0.000872015 0
-0.00317233 -0.00119827 0
-0.00351061 -0.000400137 0
-0.00330649 -1.41741e-05 0
-0.00397004 0.000477133 0
-0.00481987 8.10353e-05 0
-0.00426098 -0.000555866 0
-0.00331764 -0.000130431 0
-0.00417454 0.000800152 0
-0.00555348 0.000541817 0
-0.00394723 -0.000682881 0
-0.00229871 -0.000872774 0
-0.00261657 -0.00511975 0
-0.00256425 -0.00640086 0
-0.000817792 -0.00196179 0
-0.00243426 0.00816723 0
-0.00246431 0.00732599 0
0 0 0
0 0 0
0 0 0
-0.00101413 0.00187514 0
-0.000529288 0.000780163 0
-0.00101314 0.00025266 0
-0.00285185 0.00031535 0
-0.00196778 0.000455851 0
-0.00172906 -0.000193482 0
-0.00224453 -8.66465e-05 0
-0.00208569 0.000194435 0
-0.00210892 -0.000175075 0
-0.00290878 -0.000164975 0
-0.00354049 -0.00017324 0
-0.00439059 0.000841546 0
-0.0043424 0.000609618 0
-0.0034958 0.000151243 0
-0.00404811 -0.000527653 0
-0.00499926 -7.05492e-05 0
-0.00413359 0.000677682 0
-0.0027632 0.000300823 0
-0.00373947 -0.00103233 0
-0.00252113 -0.00464277 0
0.00103489 -0.00529937 0
-0.000927281 -0.00374803 0
-0.0015432 -0.00564509 0
0.000572171 0.0110956 0
0.000408257 0.00426742 0
-0.00015603 0.000133367 0
0 0 0
0 0 0
0.00110919 0.00172688 0
0.000557354 0.000448472 0
-0.000455669 0.00194129 0
0 0 0
0 0 0
0 0 0
0 0 0
0 0 0
0 0 0
0 0 0
-0.000931653 0.00112108 0
-0.000895435 0.000286694 0
0 0 0
0 0 0
0 0 0
0 0 0
0 0 0
0 0 0
0 0 0
-0.00166606 -0.00666835 0
-0.00298614 -0.00499456 0
2.74124e-05 -0.00377843 0
0.001595 -0.00553295 0
0.00282439 0.00609178 0
0.00357715 0.00918051 0
0.000513127 0.000844575 0
-0.000588638 -0.000653795 0
0 0 0
0 0 0
0.000918351 0.0023645 0
0.00112644 0.00175781 0
0 0 0
0 0 0
0 0 0
0 0 0
0 0 0
0 0 0
-0.000880745 0.00106026 0
-0.000538303 0.000703823 0
0.000386427 -0.000300207 0
0 0 0
0 0 0
0 0 0
0 0 0
0 0 0
0 0 0
-0.00140004 0.00136251 0
-0.00376532 -0.00248788 0
-0.00822894 -0.00363153 0
-0.00592848 -0.0136071 0
0.000369072 -0.0027615 0
-0.00150888 0.00379866 0
0.00105458 0.00912919 0
0.00504994 0.00142946 0
0.00208878 0.00116618 0
0 0 0
0 0 0
0.0008899 0.00131724 0
0.00109272 0.00164191 0
-0.00424393 0.00379846 0
-0.00760922 -0.0002038 0
-0.00564187 -0.00104542 0
-0.00562855 0.000930134 0
-0.00768723 0.000417856 0
-0.00672831 -0.000892061 0
-0.00462009 0.00127461 0
-0.00619902 0.000752817 0
-0.00673518 -0.000786893 0
-0.00534552 0.000109538 0
-0.00712452 0.00115689 0
-0.00812132 -0.000533467 0
-0.00571484 -0.00106922 0
-0.00573811 0.00123214 0
-0.00891485 0.00125408 0
-0.00642753 -0.000324317 0
-0.00399871 0.00203432 0
-0.00966085 -9.51313e-05 0
-0.0127431 -0.0167158 0
-0.00522812 -0.00967227 0
-0.00126544 0.00806681 0
-0.000248618 0.00038027 0
0.00115869 0.00164959 0
-9.17013e-05 0.00534731 0
0 0 0
0 0 0
0 0 0
-0.00237854 0.00639924 0
-0.00502311 0.00849865 0
-0.00536674 0.000207794 0
-0.00732677 -0.00090665 0
-0.00734337 0.00093208 0
-0.00528307 0.00039809 0
-0.00624291 -0.000959061 0
-0.00746957 0.000180435 0
-0.00513417 0.00104662 0
-0.00539706 0.000257337 0
-0.00803075 0.000350964 0
-0.00649601 0.00122706 0
-0.00550164 -0.000538831 0
-0.00790646 -0.00106822 0
-0.00788418 0.00107705 0
-0.00470607 0.0010751 0
-0.00579594 -0.00200515 0
-0.00702625 0.00168729 0
-0.00161688 -0.00191797 0
-0.00324603 -0.00802188 0
-0.00382298 -0.023487 0
0.00171787 0.00757123 0
-0.00628112 0.00629952 0
-0.0142036 0.00180039 0
-0.00788136 0.00151588 0
-0.00104715 -0.00161813 0
0 0 0
0 0 0
0.00172399 0.00838803 0
0.00181464 0.00871047 0
0 0 0
0 0 0
0 0 0
0 0 0
0 0 0
0 0 0
0 0 0
0.000492927 0.00118749 0
0.000454652 0.000905699 0
0 0 0
0 0 0
0 0 0
0 0 0
0 0 0
0 0 0
0 0 0
-0.00136443 -0.00245355 0
0.00614866 -0.0148034 0
0.00799674 -0.0173663 0
-0.00200613 0.00780117 0
-0.0118809 0.0237986 0
-0.0117263 -0.0029414 0
-0.005022 -0.00677654 0
-0.00276264 -0.00647312 0
0 0 0
0 0 0
-0.000270195 0.00550939 0
0.00374747 0.00640962 0
0.00411684 0.00479376 0
0.000772196 0.000148798 0
0.000162254 0.000169161 0
0 0 0
0 0 0
0 0 0
0 0 0
0 0 0
0.000469191 0.00158494 0
0.000176296 0.000637028 0
-0.000546486 -2.02754e-05 0
-0.000316321 -0.00019555 0
0 0 0
0 0 0
0 0 0
0 0 0
0 0 0
-0.00079683 -0.0287934 0
-0.000446615 -0.00589911 0
-0.00638091 0.0201134 0
-0.00932472 0.0188479 0
-0.000866851 -0.00792534 0
0.00497149 -0.0105045 0
-0.00152018 -0.00112755 0
-0.00987449 -0.0005702 0
-0.00506732 -0.00253889 0
-0.00067149 0.00416993 0
-0.00295407 0.00670428 0
-0.000396172 0.00273892 0
0.00462793 0.00103056 0
0.00187293 0.0018216 0
0.00153384 -0.00105076 0
0.00471112 -0.000961361 0
0.00378233 0.00163375 0
0.000737509 0.000443476 0
0.00284678 -0.00158899 0
0.00589891 0.00135069 0
0.00266584 0.0031261 0
0.00116721 -0.0011881 0
0.00650732 -0.00263962 0
0.00627295 0.00242045 0
-5.88579e-05 0.00155766 0
0.0032152 -0.00381822 0
0.00914332 3.00833e-05 0
0.00250998 0.00431632 0
-0.0110543 -0.0174305 0
-0.00809022 -0.0184765 0
0.0232869 0.0150838 0
0.0503426 0.00329718 0
0.0490263 -0.00407948 0
0.0353646 -0.00513361 0
0.0341444 0.00400719 0
0.0386978 -0.000696286 0
0.0338939 -0.00268407 0
0.0316954 0.00122736 0
0.0396197 0.00398246 0
0.0421836 -0.00216528 0
0.0405213 0.000837231 0
0.0438676 0.00145809 0
0.0443815 -0.0011567 0
0.0412036 -0.00100473 0
0.0421293 0.00161957 0
0.0451787 0.000328508 0
0.0430676 -0.00176086 0
0.0409228 0.000331251 0
0.0451497 0.00247769 0
0.0473833 -0.00116482 0
0.0418007 -0.00252858 0
0.041725 0.00252552 0
0.0480605 0.00156759 0
0.0447862 -0.00389081 0
0.0388506 8.58453e-05 0
0.0454893 0.0043044 0
0.0489335 -0.00208931 0
0.0236269 -0.0153017 0

