# vtk DataFile Version 4.0
SiwiRVisFile
ASCII
DATASET STRUCTURED_POINTS
DIMENSIONS 28 14 1
ORIGIN 0 0 0
SPACING 1 1 1
POINT_DATA 392

SCALARS flags double 1
LOOKUP_TABLE default
1
1
1
1
1
1
1
1
1
1
1
1
1
1
1
1
1
1
1
1
1
1
1
1
1
1
1
1
1
1
1
1
1
1
1
1
1
1
1
1
1
1
1
1
1
1
1
1
1
1
1
1
1
1
1
1
1
1
1
1
1
1
1
1
1
1
1
1
1
1
1
1
1
1
1
1
1
1
1
1
1
1
1
1
1
1
1
1
1
1
1
1
1
1
1
1
1
1
1
1
1
1
1
1
1
1
1
1
1
1
1
1
1
1
1
1
1
1
1
1
1
1
1
1
1
1
1
1
1
1
1
1
1
1
1
1
1
1
1
1
1
1
1
1
1
1
1
1
1
1
1
1
1
1
1
1
1
1
1
1
1
1
1
1
1
1
1
1
1
1
1
1
1
1
1
1
1
1
1
1
1
1
1
1
1
1
1
1
1
1
1
1
1
1
1
1
1
1
1
1
1
1
1
1
1
1
1
1
1
1
1
1
1
1
1
1
1
1
1
1
1
1
1
1
1
1
1
1
1
1
1
1
1
1
1
1
1
1
1
1
1
1
1
1
1
1
1
1
1
1
1
1
1
1
1
1
1
1
1
1
1
1
1
1
1
1
1
1
1
1
1
1
1
1
1
1
1
1
1
1
1
1
1
1
1
1
1
1
1
1
1
1
1
1
1
1
1
1
1
1
1
1
1
1
1
1
1
1
1
1
1
1
1
1
1
1
1
1
1
1
1
1
1
1
1
1
1
1
1
1
1
1
1
1
1
1
1
1
1
1
1
1
1
1
1
1
1
1
1
1
1
1
1
1
1
1
1
1
1
1
1
1
1
1
1
1
1
1
1
1
1
1
1
1
1
1
1
1
1
1
1
1
1
1
1
1
1
1
1
1
1
1

SCALARS density double 1
LOOKUP_TABLE default
0.987837
0.980741
0.979945
0.998752
0.998193
0.998091
0.998056
1.00046
1.00123
1.00056
1.00299
1.00558
1.00504
1.00505
1.00609
1.00603
1.00589
1.00715
1.00827
1.00903
1.0077
1.01236
1.01751
1.01487
1.01086
1.01578
1.01794
1.01194
0.98499
0.978596
0.982713
0.999478
0.995624
0.998557
0.999981
0.999238
1.00016
1.00209
1.00317
1.00414
1.00565
1.00586
1.00549
1.00543
1.00654
1.00761
1.00753
1.0087
1.00858
1.01253
1.01632
1.01494
1.01259
1.01485
1.01637
1.01367
0.976575
0.987045
0
0
0
0
0
0
0
0
0
0
1.00563
1.00562
1.00535
0
0
0
0
0
0
0
1.01031
1.01375
1.01927
1.01328
1.01036
1.01775
0.96728
0.969728
0
0
0
0
0
0
0
0
0
0
0
1.0057
1.00553
0
0
0
0
0
0
0
0
1.01449
1.01467
1.01475
1.01438
1.01424
0.975276
0.961985
0
0
0
1.00497
0.999898
1.00525
1.00813
1.00488
1.00456
1.00778
1.00848
1.00463
1.00506
1.00918
1.00724
1.00435
1.00936
1.01207
1.00757
1.01142
1.01829
1.01538
1.00937
1.01605
1.0194
1.01114
0.967623
0.970605
0
0
0
0.999851
1.00526
1.00733
1.00279
1.00486
1.00955
1.00598
1.00432
1.00793
1.00797
1.0047
1.00623
1.00942
1.00794
1.00743
1.01133
1.01471
1.01259
1.01418
1.01626
1.01386
1.01308
1.01678
0.963582
0.977937
0.972023
0
0
1.00485
1.00867
1.00158
0
0
0
0
0
0
0
1.00505
1.00647
0
0
0
0
0
0
0
1.02041
1.01332
1.00939
1.01781
0.974026
0.964259
0.966784
0.974569
0
0
1.00005
1.00125
0
0
0
0
0
0
1.00653
1.00688
1.00508
0
0
0
0
0
0
1.01408
1.01082
1.01619
1.01872
1.00993
0.973716
0.961014
0.9668
0.978223
0
0
0.996096
1.00292
1.00182
0.990927
0.999168
1.00535
1.00392
1.0035
1.00609
1.00759
1.00597
1.0038
1.00691
1.00977
1.00581
1.01013
1.01637
1.0159
1.00977
1.0149
1.01932
1.01215
0.961589
0.978468
0.972381
0.958973
0
0
0
0.996972
0.998988
0.996392
1.00009
1.00052
1.00418
1.00773
1.00508
1.00388
1.00722
1.00806
1.00414
1.00556
1.0106
1.01352
1.00935
1.0143
1.01943
1.012
1.00765
1.02262
0.967478
0.974914
0.969879
0.963235
0.970717
0
0
0.990961
0.992572
0
0
0
0
0
0
0
1.00481
1.00747
0
0
0
0
0
0
0
1.01482
1.00978
1.01647
0.977689
0.953837
0.965033
0.983718
0.968654
0
0
0.986475
0.982933
0.99325
0.993797
0.986779
0
0
0
0
0
1.00059
1.00534
1.00555
1.00182
0
0
0
0
0
1.02901
1.0045
0.964472
0.966979
0.969561
0.969652
0.969146
0.976515
0.985331
0.989371
0.989071
0.989104
0.987754
0.993754
0.994295
0.99389
0.995289
1.00081
1.00148
1.00028
1.00451
1.00668
1.00177
1.00409
1.01437
1.01002
1.00362
1.0192
1.01199
1.0119
0.958419
0.984727
0.971799
0.957447
0.973089
0.982218
0.980327
0.988058
0.992793
0.987127
0.988006
0.994348
0.992991
0.995489
0.996169
0.997026
1.00262
1.0053
1.00013
1.0016
1.01062
1.0069
1.00093
1.01281
1.01989
1.00768
0.996524
1.03471

VECTORS velocity double
-0.000508673 0.000511207 0
-0.00553194 0.00239565 0
-0.00840322 -9.08739e-06 0
-0.00803569 -0.000527425 0
-0.00707723 -0.000117051 0
-0.00772812 0.000474734 0
-0.0082989 -0.000120804 0
-0.00758718 -0.000412575 0
-0.00732882 0.000156367 0
-0.00799854 0.000219312 0
-0.00802408 -0.000244009 0
-0.00735981 -0.000310488 0
-0.00730282 0.00018542 0
-0.00688018 -0.000545508 0
-0.00610788 -5.15491e-05 0
-0.00644507 0.000154835 0
-0.00649973 -0.000212239 0
-0.00616667 -0.000124543 0
-0.00634665 0.000138874 0
-0.0065934 -6.9902e-05 0
-0.00625072 -0.00025339 0
-0.00622927 0.000276333 0
-0.00632817 -0.000337089 0
-0.0042178 -0.00109203 0
-0.00227401 -0.000218712 0
-0.00171234 -3.53099e-05 0
-0.00101202 -0.000561591 0
-4.31038e-05 -1.22972e-05 0
-0.00246421 0.00542403 0
-0.0072688 0.00717673 0
-0.00708503 0.000778618 0
-0.00745571 -0.00062202 0
-0.00840969 -4.76397e-05 0
-0.00776402 0.000521296 0
-0.0071873 -6.42226e-05 0
-0.00790563 -0.00034792 0
-0.00815698 0.000222113 0
-0.00749452 0.00030285 0
-0.0074617 -0.000208791 0
-0.00813318 -0.000320925 0
-0.0073556 -0.000797821 0
-0.00674617 -0.000692945 0
-0.00683203 -0.000401631 0
-0.00628781 0.000272673 0
-0.00623177 -7.3928e-05 0
-0.00656519 -1.78622e-05 0
-0.00638376 0.000240646 0
-0.00613859 1.43218e-06 0
-0.00647993 -0.000126699 0
-0.00650126 0.000190149 0
-0.00563615 -0.00193994 0
-0.0050154 -0.00278283 0
-0.00423104 -0.00226923 0
-0.00226855 -0.00119131 0
-0.00146823 -0.00151912 0
-0.000550058 -0.000977374 0
-0.000679369 0.00960973 0
-0.0012552 0.0058678 0
0 0 0
0 0 0
0 0 0
0 0 0
0 0 0
0 0 0
0 0 0
0 0 0
0 0 0
0 0 0
-0.000825944 -0.00100217 0
-0.000798709 -0.00120012 0
5.93512e-05 -0.00067238 0
0 0 0
0 0 0
0 0 0
0 0 0
0 0 0
0 0 0
0 0 0
-0.000769174 -0.0012453 0
-0.00245409 -0.00182493 0
-0.00297676 -0.00391961 0
-0.00166696 -0.00209726 0
-0.00108945 -0.00143511 0
-0.00033049 -0.0021852 0
0.00184408 0.00837085 0
0.00193845 0.00712759 0
0 0 0
0 0 0
0 0 0
0 0 0
0 0 0
0 0 0
0 0 0
0 0 0
0 0 0
0 0 0
0 0 0
-0.000659331 -0.00155894 0
-0.000639325 -0.00113287 0
0 0 0
0 0 0
0 0 0
0 0 0
0 0 0
0 0 0
0 0 0
0 0 0
-0.0016613 -0.000307161 0
-0.00391363 -0.0027913 0
-0.00356474 -0.00376609 0
-0.000963502 -0.00393637 0
0.000643243 -0.00197716 0
0.000268003 0.00497002 0
0.000302258 0.0105147 0
0 0 0
0 0 0
0 0 0
-0.00011327 2.55074e-05 0
-0.00180833 0.00114859 0
-0.00207762 -0.000902566 0
-0.00125757 0.000257478 0
-0.00216249 0.000344662 0
-0.00238238 -0.000209156 0
-0.0018833 -0.000132102 0
-0.0020291 0.000101927 0
-0.00242668 -0.000872718 0
-0.0031716 -0.00119944 0
-0.00351123 -0.000401898 0
-0.00330591 -1.67014e-05 0
-0.00397044 0.000473118 0
-0.00481974 7.49279e-05 0
-0.00426112 -0.000563052 0
-0.00331761 -0.000138053 0
-0.00417427 0.00079314 0
-0.0055541 0.000534695 0
-0.00394667 -0.000688517 0
-0.00229941 -0.000876717 0
-0.0026159 -0.00512234 0
-0.00256466 -0.00640313 0
-0.000817704 -0.00196389 0
-0.00243402 0.0081652 0
-0.0024645 0.00732376 0
0 0 0
0 0 0
0 0 0
-0.00101424 0.00187398 0
-0.000529135 0.000778974 0
-0.00101332 0.000251443 0
-0.00285164 0.000313872 0
-0.00196808 0.000454334 0
-0.00172857 -0.0001952 0
-0.00224517 -8.76233e-05 0
-0.00208494 0.000194007 0
-0.00210972 -0.00017445 0
-0.00290802 -0.000163918 0
-0.00354103 -0.000171673 0
-0.00439018 0.000843811 0
-0.00434269 0.000613771 0
-0.00349573 0.000157366 0
-0.00404805 -0.000520849 0
-0.00499952 -6.29947e-05 0
-0.00413344 0.00068521 0
-0.00276342 0.000308094 0
-0.00373892 -0.00102765 0
-0.00252149 -0.00464013 0
0.00103541 -0.00529826 0
-0.0009281 -0.00374737 0
-0.00154218 -0.00564473 0
0.000571166 0.0110979 0
0.000408787 0.0042695 0
-0.000155782 0.000136377 0
0 0 0
0 0 0
0.00110889 0.00172811 0
0.000557721 0.000449626 0
-0.000456066 0.00194248 0
0 0 0
0 0 0
0 0 0
0 0 0
0 0 0
0 0 0
0 0 0
-0.000932171 0.00111978 0
-0.000895028 0.000284903 0
0 0 0
0 0 0
0 0 0
0 0 0
0 0 0
0 0 0
0 0 0
-0.00166721 -0.00666957 0
-0.00298536 -0.0049945 0
2.71923e-05 -0.00377766 0
0.00159494 -0.00553204 0
0.00282441 0.00608918 0
0.00357728 0.00917832 0
0.000512748 0.000841556 0
-0.000588187 -0.000657585 0
0 0 0
0 0 0
0.000919021 0.00236332 0
0.00112577 0.00175668 0
0 0 0
0 0 0
0 0 0
0 0 0
0 0 0
0 0 0
-0.000880852 0.0010608 0
-0.000538094 0.00070492 0
0.000386172 -0.000298959 0
0 0 0
0 0 0
0 0 0
0 0 0
0 0 0
0 0 0
-0.00139943 0.00136325 0
-0.00376572 -0.00248774 0
-0.00822859 -0.00363241 0
-0.00592893 -0.0136088 0
0.000369563 -0.00276345 0
-0.00150968 0.00380112 0
0.00105514 0.00913214 0
0.00504954 0.00143279 0
0.002089 0.00117005 0
0 0 0
0 0 0
0.000890896 0.00131857 0
0.00109163 0.00164294 0
-0.00424293 0.00379917 0
-0.00760979 -0.000203206 0
-0.00564172 -0.00104519 0
-0.00562835 0.000930594 0
-0.00768773 0.000417565 0
-0.0067276 -0.000891931 0
-0.0046209 0.00127382 0
-0.0061983 0.000751971 0
-0.00673577 -0.000787768 0
-0.00534485 0.000108268 0
-0.00712533 0.00115472 0
-0.00812059 -0.0005365 0
-0.00571567 -0.00107272 0
-0.00573722 0.00123038 0
-0.00891544 0.00125304 0
-0.00642733 -0.000324967 0
-0.00399884 0.00203492 0
-0.0096609 -9.36558e-05 0
-0.0127424 -0.0167142 0
-0.00522903 -0.00966954 0
-0.00126521 0.0080644 0
-0.0002482 0.000376923 0
0.00115771 0.00164579 0
-9.10654e-05 0.00534266 0
0 0 0
0 0 0
0 0 0
-0.00238033 0.00639813 0
-0.00502185 0.00849779 0
-0.00536743 0.000207144 0
-0.00732658 -0.000906854 0
-0.00734316 0.000931598 0
-0.0052836 0.000398358 0
-0.00624209 -0.000959225 0
-0.00747057 0.000181365 0
-0.00513305 0.00104731 0
-0.00539808 0.000257868 0
-0.00802994 0.000351822 0
-0.0064967 0.00122923 0
-0.00550089 -0.000536048 0
-0.00790738 -0.00106505 0
-0.00788352 0.00107899 0
-0.00470639 0.00107632 0
-0.00579604 -0.00200461 0
-0.00702554 0.00168625 0
-0.00161795 -0.00191992 0
-0.00324535 -0.0080234 0
-0.00382291 -0.0234896 0
0.00171488 0.0075741 0
-0.00627917 0.00630249 0
-0.0142041 0.00180463 0
-0.0078811 0.00152112 0
-0.00104789 -0.00161226 0
0 0 0
0 0 0
0.0017221 0.0083898 0
0.00181588 0.00871228 0
0 0 0
0 0 0
0 0 0
0 0 0
0 0 0
0 0 0
0 0 0
0.000491759 0.00118724 0
0.000455763 0.000905921 0
0 0 0
0 0 0
0 0 0
0 0 0
0 0 0
0 0 0
0 0 0
-0.00136406 -0.0024512 0
0.0061503 -0.0148015 0
0.00799275 -0.0173639 0
-0.00200754 0.00779789 0
-0.0118805 0.0237952 0
-0.0117271 -0.00294687 0
-0.0050218 -0.00678127 0
-0.00276365 -0.00647701 0
0 0 0
0 0 0
-0.000272303 0.00550643 0
0.00374863 0.0064064 0
0.00411522 0.00478991 0
0.00077396 0.000145363 0
0.000159899 0.000166137 0
0 0 0
0 0 0
0 0 0
0 0 0
0 0 0
0.000468931 0.00158274 0
0.00017529 0.00063341 0
-0.000545252 -2.45098e-05 0
-0.000318195 -0.00019833 0
0 0 0
0 0 0
0 0 0
0 0 0
0 0 0
-0.000797164 -0.0287957 0
-0.000447261 -0.00590176 0
-0.00638613 0.0201176 0
-0.00932366 0.0188542 0
-0.00086714 -0.00791951 0
0.00497076 -0.0105006 0
-0.00151934 -0.00112475 0
-0.00987475 -0.000567699 0
-0.00506627 -0.00253425 0
-0.000672579 0.00417394 0
-0.00295322 0.00670855 0
-0.000397331 0.00274336 0
0.00462837 0.00103453 0
0.00187269 0.00182494 0
0.00153404 -0.0010482 0
0.00471162 -0.000956945 0
0.00378142 0.00163649 0
0.000738583 0.000448194 0
0.00284623 -0.0015849 0
0.00589941 0.00135454 0
0.00266475 0.00312996 0
0.00116779 -0.00118361 0
0.00650692 -0.00263703 0
0.006273 0.00242281 0
-5.83931e-05 0.00156047 0
0.00321555 -0.00381248 0
0.00914223 3.19301e-05 0
0.00251006 0.00432094 0
-0.0110532 -0.0174278 0
-0.00809182 -0.0184749 0
0.0232858 0.0150752 0
0.0503412 0.00328993 0
0.0490267 -0.00408397 0
0.0353652 -0.00513671 0
0.0341439 0.00400311 0
0.038698 -0.000699186 0
0.033894 -0.00268775 0
0.0316955 0.00122292 0
0.0396193 0.00397712 0
0.0421836 -0.00216961 0
0.0405214 0.000832458 0
0.0438673 0.00145392 0
0.044382 -0.00115948 0
0.041203 -0.00100891 0
0.0421298 0.00161601 0
0.0451781 0.000324039 0
0.0430682 -0.001764 0
0.0409225 0.000327016 0
0.0451496 0.00247313 0
0.0473831 -0.00116899 0
0.0418013 -0.00253122 0
0.0417245 0.002522 0
0.0480606 0.00156412 0
0.0447859 -0.00389453 0
0.0388515 8.31429e-05 0
0.0454877 0.00429916 0
0.0489349 -0.00209171 0
0.0236234 -0.0153007 0

