# vtk DataFile Version 4.0
SiwiRVisFile
ASCII
DATASET STRUCTURED_POINTS
DIMENSIONS 28 14 1
ORIGIN 0 0 0
SPACING 1 1 1
POINT_DATA 392

SCALARS flags double 1
LOOKUP_TABLE default
1
1
1
1
1
1
1
1
1
1
1
1
1
1
1
1
1
1
1
1
1
1
1
1
1
1
1
1
1
1
1
1
1
1
1
1
1
1
1
1
1
1
1
1
1
1
1
1
1
1
1
1
1
1
1
1
1
1
1
1
1
1
1
1
1
1
1
1
1
1
1
1
1
1
1
1
1
1
1
1
1
1
1
1
1
1
1
1
1
1
1
1
1
1
1
1
1
1
1
1
1
1
1
1
1
1
1
1
1
1
1
1
1
1
1
1
1
1
1
1
1
1
1
1
1
1
1
1
1
1
1
1
1
1
1
1
1
1
1
1
1
1
1
1
1
1
1
1
1
1
1
1
1
1
1
1
1
1
1
1
1
1
1
1
1
1
1
1
1
1
1
1
1
1
1
1
1
1
1
1
1
1
1
1
1
1
1
1
1
1
1
1
1
1
1
1
1
1
1
1
1
1
1
1
1
1
1
1
1
1
1
1
1
1
1
1
1
1
1
1
1
1
1
1
1
1
1
1
1
1
1
1
1
1
1
1
1
1
1
1
1
1
1
1
1
1
1
1
1
1
1
1
1
1
1
1
1
1
1
1
1
1
1
1
1
1
1
1
1
1
1
1
1
1
1
1
1
1
1
1
1
1
1
1
1
1
1
1
1
1
1
1
1
1
1
1
1
1
1
1
1
1
1
1
1
1
1
1
1
1
1
1
1
1
1
1
1
1
1
1
1
1
1
1
1
1
1
1
1
1
1
1
1
1
1
1
1
1
1
1
1
1
1
1
1
1
1
1
1
1
1
1
1
1
1
1
1
1
1
1
1
1
1
1
1
1
1
1
1
1
1
1
1
1
1
1
1
1
1
1
1
1
1
1
1
1
1
1
1
1
1
1

SCALARS density double 1
LOOKUP_TABLE default
0.987844
0.980747
0.979951
0.998757
0.998196
0.998094
0.998059
1.00047
1.00123
1.00056
1.00299
1.00558
1.00504
1.00506
1.00609
1.00603
1.00589
1.00715
1.00827
1.00902
1.0077
1.01236
1.01751
1.01487
1.01085
1.01578
1.01794
1.01193
0.984996
0.978602
0.982719
0.999481
0.995629
0.998561
0.999984
0.99924
1.00017
1.00209
1.00317
1.00414
1.00565
1.00586
1.00549
1.00543
1.00654
1.00761
1.00753
1.0087
1.00858
1.01253
1.01631
1.01494
1.01258
1.01485
1.01636
1.01367
0.976581
0.987052
0
0
0
0
0
0
0
0
0
0
1.00563
1.00561
1.00535
0
0
0
0
0
0
0
1.01031
1.01375
1.01927
1.01328
1.01036
1.01775
0.967287
0.969734
0
0
0
0
0
0
0
0
0
0
0
1.0057
1.00553
0
0
0
0
0
0
0
0
1.01448
1.01467
1.01474
1.01437
1.01424
0.975282
0.961991
0
0
0
1.00497
0.999899
1.00525
1.00813
1.00488
1.00456
1.00778
1.00848
1.00463
1.00506
1.00918
1.00724
1.00435
1.00936
1.01207
1.00757
1.01142
1.01828
1.01538
1.00937
1.01605
1.0194
1.01114
0.967629
0.970612
0
0
0
0.999852
1.00526
1.00733
1.00279
1.00486
1.00956
1.00598
1.00432
1.00792
1.00797
1.0047
1.00623
1.00942
1.00794
1.00743
1.01133
1.0147
1.01259
1.01418
1.01626
1.01385
1.01307
1.01678
0.963588
0.977943
0.97203
0
0
1.00485
1.00867
1.00158
0
0
0
0
0
0
0
1.00505
1.00647
0
0
0
0
0
0
0
1.02041
1.01332
1.00939
1.01781
0.974033
0.964265
0.96679
0.974575
0
0
1.00005
1.00125
0
0
0
0
0
0
1.00653
1.00688
1.00508
0
0
0
0
0
0
1.01408
1.01082
1.01619
1.01872
1.00993
0.973723
0.96102
0.966806
0.978229
0
0
0.996098
1.00292
1.00182
0.990929
0.999169
1.00535
1.00392
1.00351
1.00609
1.00758
1.00597
1.0038
1.00691
1.00977
1.00581
1.01012
1.01637
1.0159
1.00977
1.0149
1.01932
1.01214
0.961594
0.978474
0.972388
0.958981
0
0
0
0.996974
0.998989
0.996393
1.00009
1.00052
1.00418
1.00773
1.00508
1.00388
1.00722
1.00806
1.00414
1.00555
1.0106
1.01352
1.00935
1.01429
1.01943
1.01199
1.00765
1.02262
0.967485
0.974919
0.969888
0.963238
0.970723
0
0
0.990962
0.992574
0
0
0
0
0
0
0
1.00481
1.00747
0
0
0
0
0
0
0
1.01482
1.00978
1.01647
0.977696
0.953837
0.965046
0.98372
0.968664
0
0
0.986477
0.982938
0.993251
0.993803
0.98678
0
0
0
0
0
1.0006
1.00533
1.00555
1.00181
0
0
0
0
0
1.02901
1.00451
0.964481
0.966991
0.969562
0.969659
0.969152
0.976513
0.985337
0.989376
0.989071
0.989104
0.987757
0.993754
0.9943
0.993893
0.995285
1.00081
1.00148
1.00025
1.00453
1.00665
1.00179
1.00406
1.01437
1.01
1.00362
1.01919
1.01199
1.01189
0.958421
0.984731
0.971805
0.957459
0.973083
0.982239
0.980314
0.988075
0.992781
0.987142
0.988003
0.994342
0.993022
0.99544
0.996244
0.99694
1.00272
1.00521
1.00021
1.00152
1.01069
1.00682
1.00099
1.01274
1.01993
1.00764
0.99654
1.03469

VECTORS velocity double
-0.000510036 0.000516217 0
-0.00553071 0.00240227 0
-0.00840235 3.61313e-06 0
-0.00803363 -0.000507696 0
-0.00707773 -9.53703e-05 0
-0.00772579 0.000499994 0
-0.00829893 -9.29586e-05 0
-0.00758434 -0.00037971 0
-0.00732988 0.00018976 0
-0.00799545 0.000256509 0
-0.00802449 -0.000205384 0
-0.00735738 -0.000268353 0
-0.00730319 0.000227038 0
-0.00687769 -0.000501729 0
-0.00610789 -4.42906e-06 0
-0.00644229 0.000207831 0
-0.00649864 -0.000153277 0
-0.00616506 -6.87221e-05 0
-0.00634594 0.00018763 0
-0.00659161 -2.82816e-05 0
-0.00625012 -0.000221351 0
-0.00622794 0.000294997 0
-0.00632629 -0.000336954 0
-0.0042186 -0.00112282 0
-0.00227056 -0.000288444 0
-0.00171169 -0.000142159 0
-0.00101083 -0.000677451 0
-3.74592e-05 -0.000108661 0
-0.00246398 0.0054188 0
-0.00726769 0.00716861 0
-0.00708509 0.000765337 0
-0.00745378 -0.000640416 0
-0.0084095 -6.89643e-05 0
-0.00776139 0.00049474 0
-0.0071882 -9.19624e-05 0
-0.00790275 -0.000379585 0
-0.00815727 0.000188214 0
-0.0074917 0.000264763 0
-0.00746282 -0.000246755 0
-0.00812982 -0.000361892 0
-0.00735671 -0.000839011 0
-0.00674329 -0.000735298 0
-0.0068316 -0.000446665 0
-0.00628597 0.000219727 0
-0.00622989 -0.000131815 0
-0.00656342 -7.34142e-05 0
-0.00638302 0.000191159 0
-0.00613713 -4.00724e-05 0
-0.00647917 -0.000158159 0
-0.00650031 0.000172319 0
-0.00563652 -0.00193741 0
-0.00501419 -0.00274852 0
-0.0042296 -0.00219123 0
-0.0022631 -0.00107075 0
-0.00146283 -0.00138724 0
-0.00056022 -0.000857854 0
-0.000679909 0.00961421 0
-0.00125468 0.00587495 0
0 0 0
0 0 0
0 0 0
0 0 0
0 0 0
0 0 0
0 0 0
0 0 0
0 0 0
0 0 0
-0.000827327 -0.000963678 0
-0.000796488 -0.00116206 0
5.69987e-05 -0.000633029 0
0 0 0
0 0 0
0 0 0
0 0 0
0 0 0
0 0 0
0 0 0
-0.000770319 -0.00125117 0
-0.00245152 -0.00187337 0
-0.00297293 -0.00401941 0
-0.00167132 -0.00223893 0
-0.00109079 -0.00159032 0
-0.000313596 -0.00233336 0
0.00184783 0.00836462 0
0.0019339 0.00712072 0
0 0 0
0 0 0
0 0 0
0 0 0
0 0 0
0 0 0
0 0 0
0 0 0
0 0 0
0 0 0
0 0 0
-0.000658604 -0.00159289 0
-0.00063953 -0.00116557 0
0 0 0
0 0 0
0 0 0
0 0 0
0 0 0
0 0 0
0 0 0
0 0 0
-0.00166675 -0.000253027 0
-0.00391452 -0.00268375 0
-0.00357018 -0.00359393 0
-0.000955809 -0.0037334 0
0.000621401 -0.00178488 0
0.000268508 0.00497524 0
0.000301125 0.0105222 0
0 0 0
0 0 0
0 0 0
-0.000107577 2.68014e-05 0
-0.00181401 0.00115004 0
-0.00207166 -0.000898521 0
-0.00126254 0.000264627 0
-0.00215695 0.000357106 0
-0.0023859 -0.000192728 0
-0.00187845 -0.000110935 0
-0.00203107 0.000127973 0
-0.00242248 -0.000842881 0
-0.00317343 -0.00117347 0
-0.00350805 -0.000383817 0
-0.00330677 -9.58687e-07 0
-0.00396903 0.00049303 0
-0.00481737 0.000103296 0
-0.00426099 -0.000537206 0
-0.00331501 -0.000119285 0
-0.0041756 0.000797609 0
-0.00554893 0.000510191 0
-0.00394941 -0.000759507 0
-0.00230101 -0.00101069 0
-0.00261695 -0.00531297 0
-0.00257961 -0.00661163 0
-0.000791335 -0.0022027 0
-0.00242245 0.00815961 0
-0.00247414 0.00731101 0
0 0 0
0 0 0
0 0 0
-0.00100719 0.00187353 0
-0.000535647 0.000778062 0
-0.00100701 0.000248515 0
-0.00285638 0.000306603 0
-0.00196248 0.000441425 0
-0.00173262 -0.000211369 0
-0.00224001 -0.000108394 0
-0.00208714 0.000167957 0
-0.0021059 -0.000203265 0
-0.00291022 -0.000186794 0
-0.00353771 -0.000185927 0
-0.00439003 0.000830424 0
-0.00434157 0.00059354 0
-0.00349261 0.000128794 0
-0.0040492 -0.000545213 0
-0.00499622 -8.1508e-05 0
-0.00413181 0.000680246 0
-0.00276741 0.000331642 0
-0.0037293 -0.000955341 0
-0.00253899 -0.00449336 0
0.00105443 -0.0050995 0
-0.000929445 -0.00353343 0
-0.00157217 -0.00537953 0
0.000574904 0.0111062 0
0.000398366 0.00428743 0
-0.000140456 0.000179013 0
0 0 0
0 0 0
0.001115 0.00172715 0
0.000550145 0.00044996 0
-0.000447523 0.00194447 0
0 0 0
0 0 0
0 0 0
0 0 0
0 0 0
0 0 0
0 0 0
-0.00092577 0.00113061 0
-0.000899985 0.000293348 0
0 0 0
0 0 0
0 0 0
0 0 0
0 0 0
0 0 0
0 0 0
-0.00168483 -0.00681128 0
-0.0029736 -0.00518283 0
-1.63111e-05 -0.00399429 0
0.00166987 -0.00577326 0
0.00283109 0.00607082 0
0.00356188 0.00915739 0
0.000527818 0.000789441 0
-0.000606413 -0.000731826 0
0 0 0
0 0 0
0.00090795 0.00236661 0
0.00113734 0.00175537 0
0 0 0
0 0 0
0 0 0
0 0 0
0 0 0
0 0 0
-0.00088598 0.00105461 0
-0.000533728 0.000694159 0
0.000380299 -0.000298213 0
0 0 0
0 0 0
0 0 0
0 0 0
0 0 0
0 0 0
-0.00133717 0.00150246 0
-0.00382028 -0.00234539 0
-0.00816822 -0.00348097 0
-0.0059854 -0.0134299 0
0.000441166 -0.00255509 0
-0.00148333 0.00383626 0
0.00103329 0.0091745 0
0.00507294 0.00149635 0
0.00204766 0.00127166 0
0 0 0
0 0 0
0.000864419 0.00131085 0
0.00111514 0.00164566 0
-0.00425803 0.00380553 0
-0.0076007 -0.000197956 0
-0.00564226 -0.00103568 0
-0.00562227 0.00094376 0
-0.00769349 0.000423641 0
-0.00671466 -0.000879943 0
-0.0046342 0.00127753 0
-0.00617932 0.000766055 0
-0.00674599 -0.000791342 0
-0.00533419 9.17348e-05 0
-0.00714027 0.001135 0
-0.00809063 -0.000551122 0
-0.0057567 -0.00113124 0
-0.00566557 0.00119719 0
-0.0090069 0.00110498 0
-0.0063224 -0.000442227 0
-0.00413141 0.00185949 0
-0.00950306 -0.00020617 0
-0.0129018 -0.0167891 0
-0.00511696 -0.00975857 0
-0.00125086 0.00802449 0
-0.00023822 0.000302083 0
0.00115547 0.00156583 0
-8.26442e-05 0.00516857 0
0 0 0
0 0 0
0 0 0
-0.00234225 0.00639274 0
-0.00504758 0.00847767 0
-0.00535207 0.000201652 0
-0.00733197 -0.000916548 0
-0.00733555 0.00091756 0
-0.00528954 0.000391821 0
-0.00623109 -0.000971791 0
-0.00747412 0.000178577 0
-0.00512895 0.00103461 0
-0.00539145 0.00023614 0
-0.00803894 0.000390334 0
-0.00649065 0.00124297 0
-0.00548054 -0.000527093 0
-0.00794726 -0.00100981 0
-0.00782017 0.00112009 0
-0.00480877 0.00123365 0
-0.00563029 -0.00192537 0
-0.00723891 0.00190046 0
-0.00135157 -0.00183636 0
-0.00353526 -0.00801784 0
-0.0035837 -0.0234856 0
0.00157127 0.00762443 0
-0.00614207 0.0063849 0
-0.0142837 0.00191268 0
-0.00779203 0.00173458 0
-0.0011253 -0.00128261 0
0 0 0
0 0 0
0.00173987 0.00838199 0
0.00180013 0.00874998 0
0 0 0
0 0 0
0 0 0
0 0 0
0 0 0
0 0 0
0 0 0
0.000664968 0.00125504 0
0.000325989 0.000864522 0
0 0 0
0 0 0
0 0 0
0 0 0
0 0 0
0 0 0
0 0 0
-0.00114563 -0.0025112 0
0.00588272 -0.0147455 0
0.00850348 -0.0174108 0
-0.00215019 0.00769612 0
-0.011776 0.0236665 0
-0.0118642 -0.00313255 0
-0.00488453 -0.00691255 0
-0.0029383 -0.00672182 0
0 0 0
0 0 0
-0.000130084 0.0055239 0
0.00360568 0.00632158 0
0.00430742 0.00480632 0
0.000539303 0.000437359 0
0.000407353 0.000151282 0
0 0 0
0 0 0
0 0 0
0 0 0
0 0 0
0.000438409 0.00132827 0
0.000188822 0.000891116 0
-0.000616832 -0.000172784 0
-0.00018821 0.000246683 0
0 0 0
0 0 0
0 0 0
0 0 0
0 0 0
-0.000950886 -0.0288487 0
-0.000230932 -0.00597325 0
-0.00656739 0.020313 0
-0.00928771 0.0190383 0
-0.000894153 -0.00770107 0
0.00497777 -0.0104191 0
-0.00166034 -0.00086793 0
-0.00961819 -0.000578091 0
-0.00537891 -0.00246928 0
-0.000287218 0.00423003 0
-0.00338688 0.00684033 0
2.74e-05 0.00280037 0
0.00416355 0.000730999 0
0.00232057 0.00205894 0
0.00116526 -0.00200594 0
0.00517664 0.000313244 0
0.0032217 0.000387973 0
0.00125363 0.00171175 0
0.00237176 -0.00250212 0
0.00615458 0.00214562 0
0.00262926 0.0025849 0
0.00106581 -0.000740289 0
0.00672456 -0.00336176 0
0.0060346 0.0030314 0
9.44874e-05 0.000869901 0
0.00315502 -0.00325025 0
0.00910718 -0.000391601 0
0.00260057 0.00460616 0
-0.0110958 -0.0174475 0
-0.00817961 -0.018236 0
0.0231882 0.01462 0
0.050329 0.00308313 0
0.0489771 -0.00425464 0
0.0354949 -0.00523397 0
0.0339365 0.00373265 0
0.0389437 -0.000705722 0
0.0336486 -0.00272574 0
0.0318913 0.00102827 0
0.0394406 0.00386409 0
0.0422943 -0.00216901 0
0.0405554 0.00110883 0
0.0436502 0.00128346 0
0.0448968 -0.000515327 0
0.0403348 -0.00182017 0
0.0432023 0.00254744 0
0.0439918 -0.00061757 0
0.0443013 -0.0011353 0
0.0397078 -0.000444026 0
0.0462234 0.00305863 0
0.0463803 -0.00160834 0
0.0427975 -0.00192424 0
0.0408383 0.00209746 0
0.0488054 0.00210645 0
0.0440978 -0.00427264 0
0.0393986 0.000357972 0
0.0450943 0.00402395 0
0.0491739 -0.00205727 0
0.0239227 -0.0156563 0

