# vtk DataFile Version 4.0
SiwiRVisFile
ASCII
DATASET STRUCTURED_POINTS
DIMENSIONS 28 14 1
ORIGIN 0 0 0
SPACING 1 1 1
POINT_DATA 392

SCALARS flags double 1
LOOKUP_TABLE default
1
1
1
1
1
1
1
1
1
1
1
1
1
1
1
1
1
1
1
1
1
1
1
1
1
1
1
1
1
1
1
1
1
1
1
1
1
1
1
1
1
1
1
1
1
1
1
1
1
1
1
1
1
1
1
1
1
1
1
1
1
1
1
1
1
1
1
1
1
1
1
1
1
1
1
1
1
1
1
1
1
1
1
1
1
1
1
1
1
1
1
1
1
1
1
1
1
1
1
1
1
1
1
1
1
1
1
1
1
1
1
1
1
1
1
1
1
1
1
1
1
1
1
1
1
1
1
1
1
1
1
1
1
1
1
1
1
1
1
1
1
1
1
1
1
1
1
1
1
1
1
1
1
1
1
1
1
1
1
1
1
1
1
1
1
1
1
1
1
1
1
1
1
1
1
1
1
1
1
1
1
1
1
1
1
1
1
1
1
1
1
1
1
1
1
1
1
1
1
1
1
1
1
1
1
1
1
1
1
1
1
1
1
1
1
1
1
1
1
1
1
1
1
1
1
1
1
1
1
1
1
1
1
1
1
1
1
1
1
1
1
1
1
1
1
1
1
1
1
1
1
1
1
1
1
1
1
1
1
1
1
1
1
1
1
1
1
1
1
1
1
1
1
1
1
1
1
1
1
1
1
1
1
1
1
1
1
1
1
1
1
1
1
1
1
1
1
1
1
1
1
1
1
1
1
1
1
1
1
1
1
1
1
1
1
1
1
1
1
1
1
1
1
1
1
1
1
1
1
1
1
1
1
1
1
1
1
1
1
1
1
1
1
1
1
1
1
1
1
1
1
1
1
1
1
1
1
1
1
1
1
1
1
1
1
1
1
1
1
1
1
1
1
1
1
1
1
1
1
1
1
1
1
1
1
1
1
1
1
1
1
1

SCALARS density double 1
LOOKUP_TABLE default
0.987837
0.980741
0.979945
0.998752
0.998193
0.998091
0.998056
1.00046
1.00123
1.00056
1.00299
1.00558
1.00504
1.00505
1.00609
1.00603
1.00589
1.00715
1.00827
1.00903
1.0077
1.01236
1.01751
1.01487
1.01086
1.01578
1.01794
1.01194
0.98499
0.978596
0.982713
0.999477
0.995625
0.998557
0.999981
0.999238
1.00016
1.00209
1.00317
1.00414
1.00565
1.00586
1.00549
1.00543
1.00654
1.00761
1.00753
1.0087
1.00858
1.01253
1.01632
1.01494
1.01259
1.01485
1.01637
1.01367
0.976575
0.987045
0
0
0
0
0
0
0
0
0
0
1.00563
1.00562
1.00535
0
0
0
0
0
0
0
1.01031
1.01375
1.01927
1.01328
1.01036
1.01775
0.96728
0.969728
0
0
0
0
0
0
0
0
0
0
0
1.0057
1.00553
0
0
0
0
0
0
0
0
1.01449
1.01467
1.01475
1.01438
1.01424
0.975275
0.961985
0
0
0
1.00497
0.999898
1.00525
1.00813
1.00488
1.00456
1.00778
1.00848
1.00463
1.00506
1.00918
1.00724
1.00435
1.00936
1.01207
1.00757
1.01142
1.01829
1.01538
1.00937
1.01605
1.0194
1.01114
0.967623
0.970605
0
0
0
0.999851
1.00526
1.00733
1.00279
1.00486
1.00955
1.00598
1.00432
1.00793
1.00797
1.0047
1.00623
1.00942
1.00794
1.00743
1.01133
1.01471
1.01259
1.01418
1.01626
1.01386
1.01308
1.01678
0.963582
0.977936
0.972023
0
0
1.00485
1.00867
1.00158
0
0
0
0
0
0
0
1.00505
1.00647
0
0
0
0
0
0
0
1.02041
1.01332
1.00939
1.01781
0.974026
0.964259
0.966784
0.974568
0
0
1.00005
1.00125
0
0
0
0
0
0
1.00653
1.00688
1.00508
0
0
0
0
0
0
1.01408
1.01082
1.01619
1.01872
1.00993
0.973716
0.961013
0.9668
0.978223
0
0
0.996096
1.00292
1.00182
0.990927
0.999168
1.00535
1.00392
1.0035
1.00609
1.00759
1.00597
1.0038
1.00691
1.00977
1.00581
1.01013
1.01637
1.0159
1.00977
1.0149
1.01932
1.01215
0.961589
0.978468
0.972382
0.958973
0
0
0
0.996972
0.998988
0.996392
1.00009
1.00052
1.00418
1.00773
1.00508
1.00388
1.00722
1.00806
1.00414
1.00556
1.0106
1.01352
1.00936
1.0143
1.01943
1.012
1.00765
1.02262
0.967478
0.974914
0.969879
0.963235
0.970717
0
0
0.990961
0.992572
0
0
0
0
0
0
0
1.00481
1.00747
0
0
0
0
0
0
0
1.01482
1.00978
1.01647
0.977689
0.953838
0.965032
0.983718
0.968654
0
0
0.986475
0.982933
0.99325
0.993797
0.986779
0
0
0
0
0
1.00059
1.00534
1.00555
1.00182
0
0
0
0
0
1.02901
1.0045
0.964472
0.966978
0.969561
0.969652
0.969146
0.976515
0.985331
0.989371
0.989071
0.989104
0.987754
0.993754
0.994295
0.99389
0.995289
1.00081
1.00148
1.00028
1.00451
1.00668
1.00177
1.00409
1.01437
1.01002
1.00362
1.0192
1.01199
1.0119
0.958419
0.984727
0.971799
0.957447
0.973089
0.982218
0.980327
0.988058
0.992793
0.987127
0.988006
0.994348
0.992991
0.995489
0.996169
0.997027
1.00262
1.0053
1.00013
1.0016
1.01062
1.0069
1.00093
1.01281
1.01989
1.00768
0.996524
1.03471

VECTORS velocity double
-0.000504434 0.000502708 0
-0.00553466 0.00238721 0
-0.00840256 -2.2178e-05 0
-0.0080364 -0.000543957 0
-0.00707707 -0.000131911 0
-0.00772755 0.000463931 0
-0.00830011 -0.00012971 0
-0.00758576 -0.000416596 0
-0.00733041 0.000155098 0
-0.00799684 0.000223642 0
-0.00802568 -0.000236849 0
-0.00735822 -0.000297611 0
-0.00730422 0.000201027 0
-0.00687905 -0.000524801 0
-0.0061093 -2.44293e-05 0
-0.00644355 0.000192308 0
-0.00650022 -0.000164395 0
-0.00616597 -7.36915e-05 0
-0.00634752 0.000188296 0
-0.0065922 -2.15698e-05 0
-0.00625136 -0.000208813 0
-0.00622923 0.000314286 0
-0.00632761 -0.00030364 0
-0.00421757 -0.00106136 0
-0.00227493 -0.000194632 0
-0.00171219 -1.51628e-05 0
-0.00101196 -0.000542435 0
-4.31649e-05 6.26302e-06 0
-0.00246155 0.00543267 0
-0.00727101 0.00718693 0
-0.00708309 0.000791937 0
-0.00745698 -0.00060667 0
-0.00840989 -3.30167e-05 0
-0.00776344 0.00053268 0
-0.00718822 -5.53412e-05 0
-0.00790434 -0.000344101 0
-0.00815855 0.000223393 0
-0.00749275 0.000298477 0
-0.00746364 -0.000215853 0
-0.00813105 -0.000333614 0
-0.00735788 -0.000813008 0
-0.00674474 -0.000712267 0
-0.00683296 -0.000426748 0
-0.00628716 0.000235257 0
-0.00623174 -0.000120744 0
-0.00656426 -6.83331e-05 0
-0.00638436 0.000190334 0
-0.00613804 -4.68163e-05 0
-0.00648042 -0.00017039 0
-0.00650102 0.000152029 0
-0.00563652 -0.00197129 0
-0.00501532 -0.00280949 0
-0.0042312 -0.00229128 0
-0.00226869 -0.00120973 0
-0.00146783 -0.0015359 0
-0.000550771 -0.000994161 0
-0.000673723 0.00959986 0
-0.00125964 0.00585598 0
0 0 0
0 0 0
0 0 0
0 0 0
0 0 0
0 0 0
0 0 0
0 0 0
0 0 0
0 0 0
-0.000827936 -0.000988267 0
-0.000795955 -0.00118365 0
5.65377e-05 -0.000651312 0
0 0 0
0 0 0
0 0 0
0 0 0
0 0 0
0 0 0
0 0 0
-0.000767987 -0.00121606 0
-0.00245468 -0.00180247 0
-0.00297594 -0.00390161 0
-0.00166769 -0.00208261 0
-0.00108916 -0.00142206 0
-0.000330548 -0.0021723 0
0.0018419 0.00838188 0
0.0019405 0.00713907 0
0 0 0
0 0 0
0 0 0
0 0 0
0 0 0
0 0 0
0 0 0
0 0 0
0 0 0
0 0 0
0 0 0
-0.0006573 -0.00157231 0
-0.000641227 -0.00114893 0
0 0 0
0 0 0
0 0 0
0 0 0
0 0 0
0 0 0
0 0 0
0 0 0
-0.0016634 -0.000326415 0
-0.00391219 -0.00280456 0
-0.00356576 -0.00377581 0
-0.000962116 -0.00394476 0
0.000641102 -0.00198502 0
0.000274565 0.00495937 0
0.000294919 0.0105039 0
0 0 0
0 0 0
0 0 0
-0.000111316 2.09187e-05 0
-0.00181022 0.00114425 0
-0.00207593 -0.00090696 0
-0.0012594 0.000253378 0
-0.00216045 0.000341743 0
-0.00238481 -0.000211113 0
-0.00188056 -0.000130023 0
-0.00203143 0.000108749 0
-0.00242447 -0.000861072 0
-0.00317373 -0.00118687 0
-0.00350952 -0.000389203 0
-0.00330749 -2.51383e-06 0
-0.00396965 0.000492433 0
-0.00481945 0.000101816 0
-0.00426114 -0.00053388 0
-0.0033175 -0.000109603 0
-0.00417521 0.000817575 0
-0.00555227 0.000556799 0
-0.00394827 -0.00067257 0
-0.0022976 -0.000867079 0
-0.00261748 -0.0051176 0
-0.00256393 -0.00639969 0
-0.000817454 -0.00196131 0
-0.00243499 0.00817486 0
-0.00246373 0.00733419 0
0 0 0
0 0 0
0 0 0
-0.00101225 0.00187874 0
-0.000531105 0.000783519 0
-0.00101137 0.00025566 0
-0.00285355 0.000317966 0
-0.00196616 0.000457331 0
-0.00173081 -0.000193287 0
-0.00224279 -8.95562e-05 0
-0.00208721 0.000187592 0
-0.00210753 -0.000185298 0
-0.00291011 -0.000175289 0
-0.00353972 -0.000182851 0
-0.00439098 0.000830799 0
-0.0043422 0.000593824 0
-0.0034953 0.000130402 0
-0.00404882 -0.000548468 0
-0.00499835 -9.11954e-05 0
-0.00413392 0.00065897 0
-0.00276329 0.000285502 0
-0.0037399 -0.00104065 0
-0.00252117 -0.00464585 0
0.0010348 -0.00529879 0
-0.000926423 -0.00374645 0
-0.00154482 -0.00564243 0
0.000576619 0.0110869 0
0.000405431 0.00425963 0
-0.000155974 0.000122288 0
0 0 0
0 0 0
0.00111076 0.00172282 0
0.000555631 0.000445152 0
-0.000453987 0.00193822 0
0 0 0
0 0 0
0 0 0
0 0 0
0 0 0
0 0 0
0 0 0
-0.000930107 0.00112917 0
-0.000896553 0.00029567 0
0 0 0
0 0 0
0 0 0
0 0 0
0 0 0
0 0 0
0 0 0
-0.00166487 -0.00666805 0
-0.0029868 -0.00499728 0
2.67476e-05 -0.0037829 0
0.00159659 -0.00553769 0
0.00282514 0.00610173 0
0.00357561 0.00918871 0
0.000515786 0.00085569 0
-0.000591556 -0.000639894 0
0 0 0
0 0 0
0.000917206 0.00236795 0
0.00112756 0.00176091 0
0 0 0
0 0 0
0 0 0
0 0 0
0 0 0
0 0 0
-0.000881152 0.00105453 0
-0.00053807 0.00069697 0
0.000386012 -0.000306389 0
0 0 0
0 0 0
0 0 0
0 0 0
0 0 0
0 0 0
-0.00139931 0.00136391 0
-0.00376618 -0.00248604 0
-0.00822847 -0.00362733 0
-0.00592815 -0.0136011 0
0.000368706 -0.00275483 0
-0.00150461 0.00378932 0
0.00105134 0.00911818 0
0.00505269 0.0014173 0
0.0020864 0.00115224 0
0 0 0
0 0 0
0.000888849 0.00131361 0
0.00109396 0.00163888 0
-0.00424501 0.00379693 0
-0.00760895 -0.000204191 0
-0.00564139 -0.0010433 0
-0.00562949 0.000932045 0
-0.00768623 0.000421614 0
-0.00672901 -0.000887793 0
-0.00461942 0.00128043 0
-0.00619923 0.0007584 0
-0.00673535 -0.000783137 0
-0.00534506 0.000112117 0
-0.00712543 0.00115805 0
-0.00812008 -0.00052962 0
-0.00571625 -0.00106746 0
-0.00573653 0.00123315 0
-0.00891658 0.00125222 0
-0.00642579 -0.000325725 0
-0.0040001 0.00203041 0
-0.00965976 -0.000100303 0
-0.012745 -0.0167207 0
-0.00522569 -0.00968021 0
-0.00126519 0.00807585 0
-0.000251137 0.000392582 0
0.00116326 0.00166336 0
-9.5029e-05 0.00536381 0
0 0 0
0 0 0
0 0 0
-0.00237595 0.00640251 0
-0.00502453 0.0085008 0
-0.00536647 0.000208368 0
-0.00732626 -0.00090858 0
-0.00734412 0.000929992 0
-0.00528215 0.000394203 0
-0.00624395 -0.000962958 0
-0.00746856 0.00017474 0
-0.0051349 0.00104148 0
-0.00539683 0.000254966 0
-0.00803056 0.000349849 0
-0.00649671 0.001226 0
-0.0055003 -0.000542324 0
-0.00790781 -0.00106974 0
-0.00788271 0.00107595 0
-0.00470802 0.00107701 0
-0.00579341 -0.00200388 0
-0.00702947 0.00169274 0
-0.00161354 -0.00191166 0
-0.00324758 -0.00801734 0
-0.00382373 -0.0234803 0
0.00172952 0.00756055 0
-0.006289 0.00628866 0
-0.0142011 0.00178519 0
-0.00788261 0.00149732 0
-0.00104412 -0.00163846 0
0 0 0
0 0 0
0.00172743 0.00838273 0
0.00181338 0.00870517 0
0 0 0
0 0 0
0 0 0
0 0 0
0 0 0
0 0 0
0 0 0
0.000493606 0.00118957 0
0.000454901 0.000903363 0
0 0 0
0 0 0
0 0 0
0 0 0
0 0 0
0 0 0
0 0 0
-0.00136641 -0.00246099 0
0.00614554 -0.0148088 0
0.00800503 -0.0173721 0
-0.00200042 0.00781323 0
-0.0118828 0.0238109 0
-0.0117231 -0.00292185 0
-0.00502294 -0.00675986 0
-0.002759 -0.00645961 0
0 0 0
0 0 0
-0.000265034 0.00551882 0
0.00374531 0.0064198 0
0.0041205 0.00480535 0
0.000767828 0.000159571 0
0.000168887 0.000178391 0
0 0 0
0 0 0
0 0 0
0 0 0
0 0 0
0.000471075 0.00159249 0
0.000177862 0.000648228 0
-0.000548873 -8.13228e-06 0
-0.000311791 -0.000186592 0
0 0 0
0 0 0
0 0 0
0 0 0
0 0 0
-0.000793621 -0.0287871 0
-0.000447285 -0.00589238 0
-0.00636159 0.0200983 0
-0.00932876 0.0188256 0
-0.000865674 -0.00794631 0
0.00497397 -0.010518 0
-0.00152311 -0.00113747 0
-0.00987372 -0.000578754 0
-0.00507063 -0.00255537 0
-0.000668245 0.00415702 0
-0.0029563 0.00669027 0
-0.000392956 0.00272541 0
0.00462681 0.0010177 0
0.00187343 0.00181183 0
0.00153315 -0.00106016 0
0.00471027 -0.000972864 0
0.00378388 0.00162358 0
0.000735525 0.000430825 0
0.00284718 -0.00160298 0
0.00589867 0.0013393 0
0.00266797 0.00311358 0
0.0011664 -0.00120094 0
0.0065078 -0.00264853 0
0.00627344 0.00241488 0
-6.09546e-05 0.00154801 0
0.00321499 -0.0038322 0
0.00914592 2.30342e-05 0
0.00250842 0.00430482 0
-0.0110547 -0.0174379 0
-0.00808751 -0.0184816 0
0.0232912 0.0151152 0
0.0503473 0.00332332 0
0.0490251 -0.00406328 0
0.0353622 -0.00512263 0
0.0341462 0.00402163 0
0.0386968 -0.000686246 0
0.0338938 -0.00267113 0
0.0316945 0.00124162 0
0.0396215 0.00399992 0
0.0421828 -0.00215192 0
0.0405219 0.000852623 0
0.0438677 0.00147051 0
0.044381 -0.00114708 0
0.0412037 -0.000993241 0
0.0421292 0.00163186 0
0.0451791 0.000340848 0
0.0430672 -0.0017501 0
0.0409225 0.000343568 0
0.045151 0.00249234 0
0.047383 -0.00115288 0
0.0418001 -0.00251985 0
0.041725 0.0025347 0
0.0480613 0.0015786 0
0.0447854 -0.00388163 0
0.0388499 9.43374e-05 0
0.0454922 0.00431758 0
0.0489323 -0.0020826 0
0.0236231 -0.0152992 0

