# vtk DataFile Version 4.0
SiwiRVisFile
ASCII
DATASET STRUCTURED_POINTS
DIMENSIONS 28 14 1
ORIGIN 0 0 0
SPACING 1 1 1
POINT_DATA 392

SCALARS flags double 1
LOOKUP_TABLE default
1
1
1
1
1
1
1
1
1
1
1
1
1
1
1
1
1
1
1
1
1
1
1
1
1
1
1
1
1
1
1
1
1
1
1
1
1
1
1
1
1
1
1
1
1
1
1
1
1
1
1
1
1
1
1
1
1
1
1
1
1
1
1
1
1
1
1
1
1
1
1
1
1
1
1
1
1
1
1
1
1
1
1
1
1
1
1
1
1
1
1
1
1
1
1
1
1
1
1
1
1
1
1
1
1
1
1
1
1
1
1
1
1
1
1
1
1
1
1
1
1
1
1
1
1
1
1
1
1
1
1
1
1
1
1
1
1
1
1
1
1
1
1
1
1
1
1
1
1
1
1
1
1
1
1
1
1
1
1
1
1
1
1
1
1
1
1
1
1
1
1
1
1
1
1
1
1
1
1
1
1
1
1
1
1
1
1
1
1
1
1
1
1
1
1
1
1
1
1
1
1
1
1
1
1
1
1
1
1
1
1
1
1
1
1
1
1
1
1
1
1
1
1
1
1
1
1
1
1
1
1
1
1
1
1
1
1
1
1
1
1
1
1
1
1
1
1
1
1
1
1
1
1
1
1
1
1
1
1
1
1
1
1
1
1
1
1
1
1
1
1
1
1
1
1
1
1
1
1
1
1
1
1
1
1
1
1
1
1
1
1
1
1
1
1
1
1
1
1
1
1
1
1
1
1
1
1
1
1
1
1
1
1
1
1
1
1
1
1
1
1
1
1
1
1
1
1
1
1
1
1
1
1
1
1
1
1
1
1
1
1
1
1
1
1
1
1
1
1
1
1
1
1
1
1
1
1
1
1
1
1
1
1
1
1
1
1
1
1
1
1
1
1
1
1
1
1
1
1
1
1
1
1
1
1
1
1
1
1
1
1
1

SCALARS density double 1
LOOKUP_TABLE default
0.987837
0.980741
0.979945
0.998752
0.998193
0.998091
0.998056
1.00046
1.00123
1.00056
1.00299
1.00558
1.00504
1.00505
1.00609
1.00603
1.00589
1.00715
1.00827
1.00903
1.0077
1.01236
1.01751
1.01487
1.01086
1.01578
1.01794
1.01194
0.98499
0.978596
0.982713
0.999478
0.995625
0.998557
0.999981
0.999238
1.00016
1.00209
1.00317
1.00414
1.00565
1.00586
1.00549
1.00543
1.00654
1.00761
1.00753
1.0087
1.00858
1.01253
1.01632
1.01494
1.01259
1.01485
1.01637
1.01367
0.976575
0.987045
0
0
0
0
0
0
0
0
0
0
1.00563
1.00562
1.00535
0
0
0
0
0
0
0
1.01031
1.01375
1.01927
1.01328
1.01036
1.01775
0.96728
0.969728
0
0
0
0
0
0
0
0
0
0
0
1.0057
1.00553
0
0
0
0
0
0
0
0
1.01449
1.01467
1.01475
1.01438
1.01424
0.975275
0.961985
0
0
0
1.00497
0.999898
1.00525
1.00813
1.00488
1.00456
1.00778
1.00848
1.00463
1.00506
1.00918
1.00724
1.00435
1.00936
1.01207
1.00757
1.01142
1.01829
1.01538
1.00937
1.01605
1.0194
1.01114
0.967623
0.970605
0
0
0
0.999851
1.00526
1.00733
1.00279
1.00486
1.00955
1.00598
1.00432
1.00793
1.00797
1.0047
1.00623
1.00942
1.00794
1.00743
1.01133
1.01471
1.01259
1.01418
1.01626
1.01386
1.01308
1.01678
0.963582
0.977936
0.972023
0
0
1.00485
1.00867
1.00158
0
0
0
0
0
0
0
1.00505
1.00647
0
0
0
0
0
0
0
1.02041
1.01332
1.00939
1.01781
0.974026
0.964259
0.966784
0.974569
0
0
1.00005
1.00125
0
0
0
0
0
0
1.00653
1.00688
1.00508
0
0
0
0
0
0
1.01408
1.01082
1.01619
1.01872
1.00993
0.973716
0.961013
0.9668
0.978223
0
0
0.996096
1.00292
1.00182
0.990927
0.999168
1.00535
1.00392
1.0035
1.00609
1.00759
1.00597
1.0038
1.00691
1.00977
1.00581
1.01013
1.01637
1.0159
1.00977
1.0149
1.01932
1.01215
0.961589
0.978468
0.972382
0.958973
0
0
0
0.996972
0.998988
0.996392
1.00009
1.00052
1.00418
1.00773
1.00508
1.00388
1.00722
1.00806
1.00414
1.00556
1.0106
1.01352
1.00936
1.0143
1.01943
1.012
1.00765
1.02262
0.967478
0.974914
0.969879
0.963235
0.970717
0
0
0.990961
0.992572
0
0
0
0
0
0
0
1.00481
1.00747
0
0
0
0
0
0
0
1.01482
1.00978
1.01647
0.977689
0.953838
0.965032
0.983718
0.968654
0
0
0.986475
0.982933
0.99325
0.993797
0.986779
0
0
0
0
0
1.00059
1.00534
1.00555
1.00182
0
0
0
0
0
1.02901
1.0045
0.964472
0.966978
0.969561
0.969652
0.969146
0.976515
0.985331
0.989371
0.989071
0.989104
0.987754
0.993754
0.994295
0.99389
0.995289
1.00081
1.00148
1.00028
1.00451
1.00668
1.00177
1.00409
1.01437
1.01002
1.00362
1.0192
1.01199
1.0119
0.958419
0.984727
0.971799
0.957447
0.973089
0.982218
0.980327
0.988058
0.992793
0.987127
0.988006
0.994348
0.992991
0.995489
0.996169
0.997027
1.00262
1.0053
1.00013
1.0016
1.01062
1.0069
1.00093
1.01281
1.01989
1.00768
0.996524
1.03471

VECTORS velocity double
-0.000505052 0.000505556 0
-0.00553441 0.00238965 0
-0.00840228 -1.87227e-05 0
-0.00803659 -0.000540314 0
-0.00707675 -0.000129121 0
-0.00772801 0.000464702 0
-0.00829956 -0.000130009 0
-0.00758636 -0.000419061 0
-0.00732981 0.000151498 0
-0.00799739 0.000218096 0
-0.00802531 -0.000243626 0
-0.00735857 -0.000306102 0
-0.00730395 0.000191831 0
-0.00687927 -0.000535393 0
-0.00610901 -3.69169e-05 0
-0.00644383 0.000177006 0
-0.00650037 -0.000182667 0
-0.00616587 -9.15915e-05 0
-0.00634754 0.000171907 0
-0.0065923 -3.6283e-05 0
-0.00625138 -0.00022144 0
-0.00622902 0.000304586 0
-0.00632791 -0.000311528 0
-0.00421744 -0.00106791 0
-0.00227486 -0.000199171 0
-0.00171209 -1.83784e-05 0
-0.00101208 -0.000545191 0
-4.30758e-05 3.62416e-06 0
-0.00246154 0.0054298 0
-0.00727096 0.00718386 0
-0.00708322 0.000788441 0
-0.00745698 -0.000610024 0
-0.0084095 -3.57605e-05 0
-0.00776394 0.000531847 0
-0.00718767 -5.50453e-05 0
-0.0079049 -0.000341706 0
-0.00815805 0.000227047 0
-0.00749328 0.000304154 0
-0.00746311 -0.000209188 0
-0.00813161 -0.000325296 0
-0.0073573 -0.000804009 0
-0.00674504 -0.000702252 0
-0.00683287 -0.000415025 0
-0.00628715 0.000250571 0
-0.00623206 -0.000102848 0
-0.00656426 -5.05731e-05 0
-0.00638444 0.00020702 0
-0.00613795 -3.21262e-05 0
-0.00648046 -0.000158022 0
-0.0065009 0.000161743 0
-0.00563654 -0.00196394 0
-0.00501524 -0.00280384 0
-0.00423126 -0.0022872 0
-0.00226857 -0.00120688 0
-0.00146801 -0.00153362 0
-0.000550501 -0.000991935 0
-0.000674963 0.00960311 0
-0.00125877 0.00585975 0
0 0 0
0 0 0
0 0 0
0 0 0
0 0 0
0 0 0
0 0 0
0 0 0
0 0 0
0 0 0
-0.000827566 -0.000996638 0
-0.000796604 -0.00119258 0
5.7215e-05 -0.000661474 0
0 0 0
0 0 0
0 0 0
0 0 0
0 0 0
0 0 0
0 0 0
-0.000768382 -0.0012229 0
-0.00245448 -0.00180718 0
-0.00297616 -0.00390479 0
-0.00166746 -0.00208464 0
-0.00108926 -0.00142353 0
-0.000330554 -0.0021737 0
0.00184306 0.00837811 0
0.00193929 0.00713524 0
0 0 0
0 0 0
0 0 0
0 0 0
0 0 0
0 0 0
0 0 0
0 0 0
0 0 0
0 0 0
0 0 0
-0.000657561 -0.00156473 0
-0.000641035 -0.00114079 0
0 0 0
0 0 0
0 0 0
0 0 0
0 0 0
0 0 0
0 0 0
0 0 0
-0.00166292 -0.000322447 0
-0.00391252 -0.00280242 0
-0.00356555 -0.00377486 0
-0.000962407 -0.00394432 0
0.000641583 -0.00198468 0
0.000272678 0.00496312 0
0.000297083 0.0105077 0
0 0 0
0 0 0
0 0 0
-0.000112407 2.23423e-05 0
-0.00180918 0.00114554 0
-0.00207683 -0.000905861 0
-0.00125854 0.000253968 0
-0.00216128 0.000341499 0
-0.00238399 -0.00021232 0
-0.00188137 -0.000132852 0
-0.00203087 0.000103813 0
-0.00242503 -0.000867764 0
-0.00317319 -0.00119346 0
-0.00350993 -0.000395031 0
-0.00330708 -8.23282e-06 0
-0.00396979 0.000485318 0
-0.00481965 9.26115e-05 0
-0.00426108 -0.000543244 0
-0.00331751 -0.000118002 0
-0.00417502 0.000810881 0
-0.00555262 0.000551584 0
-0.00394797 -0.00067577 0
-0.0022979 -0.000868401 0
-0.00261727 -0.00511749 0
-0.00256392 -0.00639917 0
-0.000817698 -0.00196047 0
-0.00243447 0.00817136 0
-0.00246416 0.00733044 0
0 0 0
0 0 0
0 0 0
-0.00101326 0.00187724 0
-0.000530136 0.000782178 0
-0.0010123 0.000254585 0
-0.00285267 0.000317365 0
-0.00196697 0.000457582 0
-0.00173001 -0.000192093 0
-0.00224352 -8.68021e-05 0
-0.00208664 0.000192405 0
-0.00210802 -0.000179002 0
-0.00290961 -0.000169331 0
-0.00354002 -0.00017775 0
-0.00439084 0.000836113 0
-0.00434227 0.000601161 0
-0.00349552 0.000139634 0
-0.00404854 -0.000539602 0
-0.00499867 -8.28719e-05 0
-0.00413386 0.000666163 0
-0.00276311 0.000290845 0
-0.0037399 -0.00103814 0
-0.00252101 -0.00464543 0
0.00103465 -0.00529978 0
-0.000926597 -0.00374781 0
-0.00154428 -0.00564428 0
0.000574578 0.0110909 0
0.000406753 0.00426327 0
-0.000156048 0.000127546 0
0 0 0
0 0 0
0.00110999 0.00172456 0
0.000556455 0.000446496 0
-0.000454781 0.00193938 0
0 0 0
0 0 0
0 0 0
0 0 0
0 0 0
0 0 0
0 0 0
-0.00093095 0.00112486 0
-0.00089593 0.000291177 0
0 0 0
0 0 0
0 0 0
0 0 0
0 0 0
0 0 0
0 0 0
-0.00166515 -0.00666755 0
-0.00298665 -0.00499561 0
2.71264e-05 -0.00378052 0
0.00159579 -0.00553523 0
0.00282469 0.00609705 0
0.00357645 0.00918483 0
0.000514379 0.000850391 0
-0.000590029 -0.000646616 0
0 0 0
0 0 0
0.000917655 0.00236653 0
0.00112711 0.00175969 0
0 0 0
0 0 0
0 0 0
0 0 0
0 0 0
0 0 0
-0.000880672 0.00105783 0
-0.000538472 0.0007006 0
0.000386532 -0.00030331 0
0 0 0
0 0 0
0 0 0
0 0 0
0 0 0
0 0 0
-0.00139978 0.00136275 0
-0.00376571 -0.00248728 0
-0.00822872 -0.00362946 0
-0.0059283 -0.0136039 0
0.000368865 -0.00275794 0
-0.00150681 0.00379374 0
0.00105305 0.00912343 0
0.00505117 0.00142311 0
0.0020878 0.00115895 0
0 0 0
0 0 0
0.00088918 0.00131509 0
0.00109356 0.0016401 0
-0.00424462 0.0037974 0
-0.00760914 -0.000204516 0
-0.00564142 -0.00104486 0
-0.00562939 0.000930251 0
-0.00768622 0.00041938 0
-0.00672925 -0.000890686 0
-0.00461917 0.00127723 0
-0.00619963 0.000755423 0
-0.00673485 -0.000784923 0
-0.00534569 0.00011131 0
-0.00712455 0.00115856 0
-0.00812101 -0.000530202 0
-0.00571525 -0.00106688 0
-0.00573758 0.00123353 0
-0.00891561 0.00125371 0
-0.00642661 -0.000324544 0
-0.0039995 0.00203246 0
-0.00966012 -9.78641e-05 0
-0.0127444 -0.0167185 0
-0.00522657 -0.00967666 0
-0.00126553 0.00807155 0
-0.000249741 0.000386698 0
0.00116089 0.00165676 0
-9.3263e-05 0.00535591 0
0 0 0
0 0 0
0 0 0
-0.00237694 0.00640118 0
-0.00502401 0.00850005 0
-0.00536657 0.000208576 0
-0.00732635 -0.000907185 0
-0.00734413 0.000931939 0
-0.00528207 0.000396548 0
-0.00624405 -0.000960281 0
-0.00746843 0.000177779 0
-0.00513518 0.00104425 0
-0.00539637 0.000256083 0
-0.0080311 0.000349981 0
-0.00649598 0.00122539 0
-0.00550132 -0.000541828 0
-0.0079068 -0.0010703 0
-0.00788362 0.00107553 0
-0.00470704 0.00107543 0
-0.00579453 -0.00200496 0
-0.00702818 0.00169003 0
-0.00161473 -0.00191455 0
-0.00324729 -0.00801939 0
-0.00382305 -0.0234832 0
0.00172375 0.00756567 0
-0.00628504 0.00629387 0
-0.0142024 0.00179248 0
-0.00788194 0.00150623 0
-0.00104565 -0.00162877 0
0 0 0
0 0 0
0.00172606 0.00838502 0
0.00181379 0.00870738 0
0 0 0
0 0 0
0 0 0
0 0 0
0 0 0
0 0 0
0 0 0
0.000493888 0.00118848 0
0.000454065 0.000904795 0
0 0 0
0 0 0
0 0 0
0 0 0
0 0 0
0 0 0
0 0 0
-0.00136514 -0.00245762 0
0.00614636 -0.0148064 0
0.00800242 -0.0173698 0
-0.00200333 0.00780742 0
-0.0118818 0.023805 0
-0.0117247 -0.00293124 0
-0.00502246 -0.00676785 0
-0.00276075 -0.00646606 0
0 0 0
0 0 0
-0.000267277 0.00551455 0
0.00374618 0.00641528 0
0.00411895 0.00480023 0
0.000769719 0.00015471 0
0.000165922 0.000174269 0
0 0 0
0 0 0
0 0 0
0 0 0
0 0 0
0.000469909 0.00158888 0
0.000177513 0.000643037 0
-0.000548109 -1.35854e-05 0
-0.000313575 -0.000190817 0
0 0 0
0 0 0
0 0 0
0 0 0
0 0 0
-0.000795604 -0.0287899 0
-0.000446348 -0.00589516 0
-0.00637099 0.0201056 0
-0.00932677 0.0188363 0
-0.000866267 -0.0079362 0
0.0049728 -0.0105116 0
-0.00152171 -0.00113268 0
-0.00987409 -0.000574694 0
-0.00506906 -0.00254737 0
-0.000669779 0.00416292 0
-0.00295528 0.00669668 0
-0.000394409 0.0027314 0
0.00462735 0.00102358 0
0.00187317 0.00181612 0
0.00153352 -0.00105566 0
0.00471049 -0.000968077 0
0.00378344 0.00162846 0
0.000736147 0.000436188 0
0.00284727 -0.00159645 0
0.00589851 0.00134441 0
0.00266726 0.00311943 0
0.00116655 -0.0011952 0
0.00650775 -0.00264426 0
0.00627305 0.00241718 0
-5.98298e-05 0.00155263 0
0.0032149 -0.0038264 0
0.00914485 2.65589e-05 0
0.00250947 0.00430961 0
-0.0110551 -0.0174347 0
-0.00808829 -0.0184792 0
0.0232891 0.0151 0
0.0503451 0.00331074 0
0.0490257 -0.0040711 0
0.0353634 -0.00512788 0
0.0341452 0.00401466 0
0.0386973 -0.000691053 0
0.0338937 -0.00267737 0
0.031695 0.00123511 0
0.0396206 0.00399191 0
0.0421833 -0.00215788 0
0.0405215 0.000845596 0
0.0438678 0.00146502 0
0.044381 -0.00115159 0
0.0412039 -0.000998147 0
0.042129 0.0016261 0
0.0451792 0.000335547 0
0.0430672 -0.00175513 0
0.0409228 0.000338082 0
0.0451502 0.00248552 0
0.0473833 -0.00115822 0
0.0418002 -0.00252399 0
0.0417252 0.00253073 0
0.0480607 0.00157347 0
0.044786 -0.00388547 0
0.0388498 9.03849e-05 0
0.0454912 0.00431206 0
0.0489322 -0.00208555 0
0.0236282 -0.0153018 0

