# vtk DataFile Version 4.0
SiwiRVisFile
ASCII
DATASET STRUCTURED_POINTS
DIMENSIONS 28 14 1
ORIGIN 0 0 0
SPACING 1 1 1
POINT_DATA 392

SCALARS flags double 1
LOOKUP_TABLE default
1
1
1
1
1
1
1
1
1
1
1
1
1
1
1
1
1
1
1
1
1
1
1
1
1
1
1
1
1
1
1
1
1
1
1
1
1
1
1
1
1
1
1
1
1
1
1
1
1
1
1
1
1
1
1
1
1
1
1
1
1
1
1
1
1
1
1
1
1
1
1
1
1
1
1
1
1
1
1
1
1
1
1
1
1
1
1
1
1
1
1
1
1
1
1
1
1
1
1
1
1
1
1
1
1
1
1
1
1
1
1
1
1
1
1
1
1
1
1
1
1
1
1
1
1
1
1
1
1
1
1
1
1
1
1
1
1
1
1
1
1
1
1
1
1
1
1
1
1
1
1
1
1
1
1
1
1
1
1
1
1
1
1
1
1
1
1
1
1
1
1
1
1
1
1
1
1
1
1
1
1
1
1
1
1
1
1
1
1
1
1
1
1
1
1
1
1
1
1
1
1
1
1
1
1
1
1
1
1
1
1
1
1
1
1
1
1
1
1
1
1
1
1
1
1
1
1
1
1
1
1
1
1
1
1
1
1
1
1
1
1
1
1
1
1
1
1
1
1
1
1
1
1
1
1
1
1
1
1
1
1
1
1
1
1
1
1
1
1
1
1
1
1
1
1
1
1
1
1
1
1
1
1
1
1
1
1
1
1
1
1
1
1
1
1
1
1
1
1
1
1
1
1
1
1
1
1
1
1
1
1
1
1
1
1
1
1
1
1
1
1
1
1
1
1
1
1
1
1
1
1
1
1
1
1
1
1
1
1
1
1
1
1
1
1
1
1
1
1
1
1
1
1
1
1
1
1
1
1
1
1
1
1
1
1
1
1
1
1
1
1
1
1
1
1
1
1
1
1
1
1
1
1
1
1
1
1
1
1
1
1
1

SCALARS density double 1
LOOKUP_TABLE default
0.987837
0.980741
0.979945
0.998752
0.998193
0.998091
0.998056
1.00046
1.00123
1.00056
1.00299
1.00558
1.00504
1.00505
1.00609
1.00603
1.00589
1.00715
1.00827
1.00903
1.0077
1.01236
1.01751
1.01487
1.01086
1.01578
1.01794
1.01194
0.98499
0.978596
0.982713
0.999478
0.995625
0.998557
0.999981
0.999238
1.00016
1.00209
1.00317
1.00414
1.00565
1.00586
1.00549
1.00543
1.00654
1.00761
1.00753
1.0087
1.00858
1.01253
1.01632
1.01494
1.01259
1.01485
1.01637
1.01367
0.976575
0.987045
0
0
0
0
0
0
0
0
0
0
1.00563
1.00562
1.00535
0
0
0
0
0
0
0
1.01031
1.01375
1.01927
1.01328
1.01036
1.01775
0.96728
0.969728
0
0
0
0
0
0
0
0
0
0
0
1.0057
1.00553
0
0
0
0
0
0
0
0
1.01449
1.01467
1.01475
1.01438
1.01424
0.975276
0.961985
0
0
0
1.00497
0.999898
1.00525
1.00813
1.00488
1.00456
1.00778
1.00848
1.00463
1.00506
1.00918
1.00724
1.00435
1.00936
1.01207
1.00757
1.01142
1.01829
1.01538
1.00937
1.01605
1.0194
1.01114
0.967623
0.970605
0
0
0
0.999851
1.00526
1.00733
1.00279
1.00486
1.00955
1.00598
1.00432
1.00793
1.00797
1.0047
1.00623
1.00942
1.00794
1.00743
1.01133
1.01471
1.01259
1.01418
1.01626
1.01386
1.01308
1.01678
0.963582
0.977937
0.972023
0
0
1.00485
1.00867
1.00158
0
0
0
0
0
0
0
1.00505
1.00647
0
0
0
0
0
0
0
1.02041
1.01332
1.00939
1.01781
0.974026
0.964259
0.966784
0.974569
0
0
1.00005
1.00125
0
0
0
0
0
0
1.00653
1.00688
1.00508
0
0
0
0
0
0
1.01408
1.01082
1.01619
1.01872
1.00993
0.973716
0.961013
0.9668
0.978223
0
0
0.996096
1.00292
1.00182
0.990927
0.999168
1.00535
1.00392
1.0035
1.00609
1.00759
1.00597
1.0038
1.00691
1.00977
1.00581
1.01013
1.01637
1.0159
1.00977
1.0149
1.01932
1.01215
0.961589
0.978468
0.972382
0.958973
0
0
0
0.996972
0.998988
0.996392
1.00009
1.00052
1.00418
1.00773
1.00508
1.00388
1.00722
1.00806
1.00414
1.00556
1.0106
1.01352
1.00936
1.0143
1.01943
1.012
1.00765
1.02262
0.967478
0.974914
0.969879
0.963235
0.970717
0
0
0.990961
0.992572
0
0
0
0
0
0
0
1.00481
1.00747
0
0
0
0
0
0
0
1.01482
1.00978
1.01647
0.977689
0.953838
0.965032
0.983718
0.968654
0
0
0.986475
0.982933
0.99325
0.993797
0.986779
0
0
0
0
0
1.00059
1.00534
1.00555
1.00182
0
0
0
0
0
1.02901
1.0045
0.964472
0.966978
0.969561
0.969652
0.969146
0.976515
0.985331
0.989371
0.989071
0.989104
0.987754
0.993754
0.994295
0.99389
0.995289
1.00081
1.00148
1.00028
1.00451
1.00668
1.00177
1.00409
1.01437
1.01002
1.00362
1.0192
1.01199
1.0119
0.958419
0.984727
0.971799
0.957447
0.973089
0.982218
0.980327
0.988058
0.992793
0.987127
0.988006
0.994348
0.992991
0.995489
0.996169
0.997027
1.00262
1.0053
1.00013
1.0016
1.01062
1.0069
1.00093
1.01281
1.01989
1.00768
0.996524
1.03471

VECTORS velocity double
-0.00050587 0.000507391 0
-0.00553392 0.00239145 0
-0.00840234 -1.59022e-05 0
-0.00803653 -0.000536809 0
-0.00707669 -0.000125915 0
-0.00772822 0.000466948 0
-0.00829922 -0.000128125 0
-0.00758673 -0.000418295 0
-0.00732941 0.000151701 0
-0.00799779 0.000217067 0
-0.00802495 -0.000245262 0
-0.00735892 -0.000308963 0
-0.00730366 0.000188392 0
-0.00687949 -0.000539898 0
-0.00610873 -4.27876e-05 0
-0.00644412 0.00016899 0
-0.00650032 -0.000192855 0
-0.00616596 -0.000102256 0
-0.00634742 0.000161636 0
-0.00659248 -4.61207e-05 0
-0.00625131 -0.00023038 0
-0.00622897 0.000297188 0
-0.00632807 -0.000317929 0
-0.00421743 -0.00107364 0
-0.00227474 -0.000203565 0
-0.00171207 -2.19471e-05 0
-0.00101213 -0.000548527 0
-4.30256e-05 4.09248e-07 0
-0.00246201 0.00542794 0
-0.00727057 0.00718167 0
-0.00708356 0.000785576 0
-0.00745679 -0.000613274 0
-0.00840937 -3.89166e-05 0
-0.00776415 0.000529478 0
-0.00718739 -5.6923e-05 0
-0.00790525 -0.000342431 0
-0.00815766 0.000226842 0
-0.00749369 0.000305195 0
-0.00746268 -0.000207575 0
-0.00813206 -0.000322477 0
-0.00735683 -0.000800663 0
-0.00674533 -0.000698042 0
-0.0068327 -0.000409589 0
-0.00628726 0.000258576 0
-0.00623212 -9.28788e-05 0
-0.00656439 -3.99887e-05 0
-0.00638438 0.000217477 0
-0.00613799 -2.2305e-05 0
-0.00648042 -0.00014926 0
-0.00650089 0.000169169 0
-0.00563653 -0.00195795 0
-0.00501521 -0.00279886 0
-0.00423127 -0.00228319 0
-0.00226851 -0.00120363 0
-0.00146812 -0.00153071 0
-0.000550327 -0.000989048 0
-0.000676105 0.00960522 0
-0.00125788 0.00586229 0
0 0 0
0 0 0
0 0 0
0 0 0
0 0 0
0 0 0
0 0 0
0 0 0
0 0 0
0 0 0
-0.000827169 -0.000999703 0
-0.000797158 -0.00119618 0
5.77753e-05 -0.000666039 0
0 0 0
0 0 0
0 0 0
0 0 0
0 0 0
0 0 0
0 0 0
-0.000768662 -0.00122848 0
-0.00245433 -0.00181136 0
-0.00297634 -0.00390804 0
-0.00166729 -0.0020872 0
-0.00108934 -0.00142575 0
-0.000330524 -0.00217588 0
0.00184355 0.00837576 0
0.00193883 0.00713277 0
0 0 0
0 0 0
0 0 0
0 0 0
0 0 0
0 0 0
0 0 0
0 0 0
0 0 0
0 0 0
0 0 0
-0.00065793 -0.0015618 0
-0.000640696 -0.0011373 0
0 0 0
0 0 0
0 0 0
0 0 0
0 0 0
0 0 0
0 0 0
0 0 0
-0.0016625 -0.000318865 0
-0.0039128 -0.00280005 0
-0.00356536 -0.00377321 0
-0.00096267 -0.00394295 0
0.000641988 -0.00198343 0
0.00027124 0.00496538 0
0.000298686 0.0105099 0
0 0 0
0 0 0
0 0 0
-0.000112904 2.32904e-05 0
-0.00180871 0.00114643 0
-0.00207724 -0.000904949 0
-0.00125811 0.000254801 0
-0.00216172 0.000342107 0
-0.0023835 -0.000211964 0
-0.0018819 -0.000133318 0
-0.00203045 0.000102276 0
-0.00242541 -0.000870308 0
-0.00317283 -0.00119621 0
-0.00351021 -0.000397774 0
-0.00330684 -1.12657e-05 0
-0.00396987 0.000481279 0
-0.00481979 8.70392e-05 0
-0.00426101 -0.00054919 0
-0.00331757 -0.000123702 0
-0.00417482 0.000806064 0
-0.00555297 0.00054738 0
-0.00394767 -0.000678722 0
-0.00229821 -0.000870101 0
-0.00261701 -0.00511824 0
-0.00256402 -0.00639965 0
-0.000817782 -0.00196077 0
-0.00243435 0.00816932 0
-0.00246424 0.00732825 0
0 0 0
0 0 0
0 0 0
-0.00101375 0.00187625 0
-0.000529666 0.000781243 0
-0.00101276 0.000253718 0
-0.00285223 0.00031653 0
-0.00196739 0.000456958 0
-0.00172955 -0.00019244 0
-0.00224398 -8.63673e-05 0
-0.00208624 0.000193859 0
-0.00210838 -0.000176639 0
-0.00290927 -0.000166845 0
-0.0035402 -0.000175333 0
-0.00439076 0.000838901 0
-0.0043423 0.000605332 0
-0.00349568 0.000145222 0
-0.00404832 -0.000533972 0
-0.00499894 -7.72205e-05 0
-0.00413376 0.000671336 0
-0.0027631 0.000295141 0
-0.00373978 -0.00103574 0
-0.002521 -0.00464446 0
0.00103468 -0.00529981 0
-0.000926824 -0.00374811 0
-0.00154386 -0.00564487 0
0.000573361 0.0110933 0
0.000407534 0.00426532 0
-0.000156087 0.000130414 0
0 0 0
0 0 0
0.00110958 0.00172567 0
0.000556904 0.000447416 0
-0.000455218 0.00194025 0
0 0 0
0 0 0
0 0 0
0 0 0
0 0 0
0 0 0
0 0 0
-0.000931296 0.00112283 0
-0.000895688 0.000288855 0
0 0 0
0 0 0
0 0 0
0 0 0
0 0 0
0 0 0
0 0 0
-0.00166545 -0.00666774 0
-0.00298651 -0.00499498 0
2.73316e-05 -0.00377942 0
0.00159535 -0.00553405 0
0.0028245 0.00609444 0
0.00357685 0.0091827 0
0.000513693 0.000847525 0
-0.000589275 -0.000650154 0
0 0 0
0 0 0
0.000917924 0.00236558 0
0.00112685 0.00175882 0
0 0 0
0 0 0
0 0 0
0 0 0
0 0 0
0 0 0
-0.000880639 0.00105923 0
-0.000538465 0.000702329 0
0.000386574 -0.000301708 0
0 0 0
0 0 0
0 0 0
0 0 0
0 0 0
0 0 0
-0.00140004 0.00136244 0
-0.00376542 -0.00248768 0
-0.0082289 -0.00363051 0
-0.00592833 -0.0136054 0
0.000368908 -0.00275965 0
-0.0015079 0.00379618 0
0.00105387 0.00912628 0
0.00505049 0.00142624 0
0.00208837 0.0011625 0
0 0 0
0 0 0
0.000889402 0.00131609 0
0.00109329 0.00164095 0
-0.0042444 0.00379786 0
-0.00760911 -0.000204275 0
-0.00564166 -0.00104529 0
-0.00562902 0.000929969 0
-0.00768662 0.000418492 0
-0.00672893 -0.000891633 0
-0.00461947 0.00127579 0
-0.00619949 0.000754013 0
-0.00673487 -0.000785911 0
-0.00534577 0.000110558 0
-0.00712433 0.00115811 0
-0.00812136 -0.000531413 0
-0.00571484 -0.00106748 0
-0.00573806 0.00123313 0
-0.00891507 0.00125415 0
-0.00642716 -0.000324252 0
-0.00399905 0.00203344 0
-0.0096605 -9.65471e-05 0
-0.0127438 -0.0167172 0
-0.00522727 -0.00967462 0
-0.00126555 0.00806921 0
-0.00024913 0.00038353 0
0.00115975 0.00165324 0
-9.24357e-05 0.0053517 0
0 0 0
0 0 0
0 0 0
-0.00237753 0.00640027 0
-0.00502372 0.00849942 0
-0.00536656 0.000208301 0
-0.00732659 -0.000906783 0
-0.0073438 0.000932248 0
-0.00528246 0.000397457 0
-0.00624364 -0.000959422 0
-0.00746882 0.0001792 0
-0.00513489 0.00104555 0
-0.0053965 0.000256714 0
-0.0080311 0.000350347 0
-0.00649582 0.00122583 0
-0.00550168 -0.000540719 0
-0.00790641 -0.00106979 0
-0.00788407 0.00107597 0
-0.00470644 0.00107497 0
-0.00579529 -0.00200521 0
-0.00702724 0.00168863 0
-0.00161572 -0.00191617 0
-0.00324675 -0.00802056 0
-0.00382297 -0.0234849 0
0.00172081 0.00756841 0
-0.00628306 0.00629665 0
-0.014203 0.00179636 0
-0.00788163 0.00151094 0
-0.00104641 -0.0016236 0
0 0 0
0 0 0
0.00172522 0.00838644 0
0.00181405 0.00870883 0
0 0 0
0 0 0
0 0 0
0 0 0
0 0 0
0 0 0
0 0 0
0.000493625 0.00118793 0
0.000454104 0.000905333 0
0 0 0
0 0 0
0 0 0
0 0 0
0 0 0
0 0 0
0 0 0
-0.00136474 -0.0024557 0
0.00614731 -0.014805 0
0.00800001 -0.0173682 0
-0.00200474 0.00780434 0
-0.0118813 0.0238019 0
-0.0117255 -0.00293621 0
-0.00502222 -0.00677209 0
-0.00276168 -0.0064695 0
0 0 0
0 0 0
-0.000268579 0.00551209 0
0.00374671 0.00641258 0
0.00411803 0.00479719 0
0.000770831 0.000151896 0
0.000164219 0.000171853 0
0 0 0
0 0 0
0 0 0
0 0 0
0 0 0
0.000469487 0.00158696 0
0.000177043 0.000640174 0
-0.000547436 -1.6708e-05 0
-0.000314794 -0.000193097 0
0 0 0
0 0 0
0 0 0
0 0 0
0 0 0
-0.000796322 -0.0287915 0
-0.000446305 -0.00589693 0
-0.00637589 0.0201095 0
-0.00932575 0.018842 0
-0.000866562 -0.00793087 0
0.00497216 -0.0105081 0
-0.00152097 -0.00113017 0
-0.00987428 -0.000572515 0
-0.00506823 -0.00254322 0
-0.000670585 0.00416627 0
-0.00295473 0.00670033 0
-0.000395225 0.00273495 0
0.00462761 0.00102693 0
0.00187306 0.00181868 0
0.00153368 -0.00105324 0
0.00471074 -0.000965033 0
0.003783 0.00163108 0
0.000736702 0.00043952 0
0.00284712 -0.00159281 0
0.00589861 0.00134736 0
0.00266667 0.00312264 0
0.0011668 -0.00119189 0
0.00650759 -0.00264199 0
0.00627295 0.00241862 0
-5.93208e-05 0.00155509 0
0.00321498 -0.00382277 0
0.00914418 2.83312e-05 0
0.00250979 0.00431261 0
-0.0110549 -0.0174328 0
-0.00808906 -0.0184779 0
0.023288 0.015092 0
0.0503439 0.00330409 0
0.049026 -0.00407521 0
0.035364 -0.00513068 0
0.0341448 0.00401101 0
0.0386976 -0.000693599 0
0.0338938 -0.00268064 0
0.0316952 0.0012314 0
0.0396201 0.00398737 0
0.0421835 -0.00216138 0
0.0405214 0.000841589 0
0.0438678 0.00146176 0
0.0443812 -0.00115409 0
0.0412038 -0.00100117 0
0.042129 0.00162292 0
0.0451791 0.000332302 0
0.0430673 -0.00175792 0
0.0409229 0.000334885 0
0.0451499 0.00248176 0
0.0473834 -0.0011613 0
0.0418004 -0.00252621 0
0.0417252 0.00252837 0
0.0480605 0.00157065 0
0.0447862 -0.00388785 0
0.03885 8.82106e-05 0
0.0454904 0.00430862 0
0.0489326 -0.00208729 0
0.0236285 -0.0153021 0

