# vtk DataFile Version 4.0
SiwiRVisFile
ASCII
DATASET STRUCTURED_POINTS
DIMENSIONS 28 14 1
ORIGIN 0 0 0
SPACING 1 1 1
POINT_DATA 392

SCALARS flags double 1
LOOKUP_TABLE default
1
1
1
1
1
1
1
1
1
1
1
1
1
1
1
1
1
1
1
1
1
1
1
1
1
1
1
1
1
1
1
1
1
1
1
1
1
1
1
1
1
1
1
1
1
1
1
1
1
1
1
1
1
1
1
1
1
1
1
1
1
1
1
1
1
1
1
1
1
1
1
1
1
1
1
1
1
1
1
1
1
1
1
1
1
1
1
1
1
1
1
1
1
1
1
1
1
1
1
1
1
1
1
1
1
1
1
1
1
1
1
1
1
1
1
1
1
1
1
1
1
1
1
1
1
1
1
1
1
1
1
1
1
1
1
1
1
1
1
1
1
1
1
1
1
1
1
1
1
1
1
1
1
1
1
1
1
1
1
1
1
1
1
1
1
1
1
1
1
1
1
1
1
1
1
1
1
1
1
1
1
1
1
1
1
1
1
1
1
1
1
1
1
1
1
1
1
1
1
1
1
1
1
1
1
1
1
1
1
1
1
1
1
1
1
1
1
1
1
1
1
1
1
1
1
1
1
1
1
1
1
1
1
1
1
1
1
1
1
1
1
1
1
1
1
1
1
1
1
1
1
1
1
1
1
1
1
1
1
1
1
1
1
1
1
1
1
1
1
1
1
1
1
1
1
1
1
1
1
1
1
1
1
1
1
1
1
1
1
1
1
1
1
1
1
1
1
1
1
1
1
1
1
1
1
1
1
1
1
1
1
1
1
1
1
1
1
1
1
1
1
1
1
1
1
1
1
1
1
1
1
1
1
1
1
1
1
1
1
1
1
1
1
1
1
1
1
1
1
1
1
1
1
1
1
1
1
1
1
1
1
1
1
1
1
1
1
1
1
1
1
1
1
1
1
1
1
1
1
1
1
1
1
1
1
1
1
1
1
1
1
1

SCALARS density double 1
LOOKUP_TABLE default
0.987837
0.980741
0.979945
0.998752
0.998193
0.998091
0.998056
1.00046
1.00123
1.00056
1.00299
1.00558
1.00504
1.00505
1.00609
1.00603
1.00589
1.00715
1.00827
1.00903
1.0077
1.01236
1.01751
1.01487
1.01086
1.01578
1.01794
1.01194
0.98499
0.978596
0.982713
0.999477
0.995625
0.998557
0.999981
0.999238
1.00016
1.00209
1.00317
1.00414
1.00565
1.00586
1.00549
1.00543
1.00654
1.00761
1.00753
1.0087
1.00858
1.01253
1.01632
1.01494
1.01259
1.01485
1.01637
1.01367
0.976575
0.987045
0
0
0
0
0
0
0
0
0
0
1.00563
1.00562
1.00535
0
0
0
0
0
0
0
1.01031
1.01375
1.01927
1.01328
1.01036
1.01775
0.96728
0.969728
0
0
0
0
0
0
0
0
0
0
0
1.0057
1.00553
0
0
0
0
0
0
0
0
1.01449
1.01467
1.01475
1.01438
1.01424
0.975275
0.961985
0
0
0
1.00497
0.999898
1.00525
1.00813
1.00488
1.00456
1.00778
1.00848
1.00463
1.00506
1.00918
1.00724
1.00435
1.00936
1.01207
1.00757
1.01142
1.01829
1.01538
1.00937
1.01605
1.0194
1.01114
0.967623
0.970605
0
0
0
0.999851
1.00526
1.00733
1.00279
1.00486
1.00955
1.00598
1.00432
1.00793
1.00797
1.0047
1.00623
1.00942
1.00794
1.00743
1.01133
1.01471
1.01259
1.01418
1.01626
1.01386
1.01308
1.01678
0.963582
0.977936
0.972023
0
0
1.00485
1.00867
1.00158
0
0
0
0
0
0
0
1.00505
1.00647
0
0
0
0
0
0
0
1.02041
1.01332
1.00939
1.01781
0.974026
0.964259
0.966784
0.974568
0
0
1.00005
1.00125
0
0
0
0
0
0
1.00653
1.00688
1.00508
0
0
0
0
0
0
1.01408
1.01082
1.01619
1.01872
1.00993
0.973716
0.961013
0.9668
0.978223
0
0
0.996096
1.00292
1.00182
0.990927
0.999168
1.00535
1.00392
1.0035
1.00609
1.00759
1.00597
1.0038
1.00691
1.00977
1.00581
1.01013
1.01637
1.0159
1.00977
1.0149
1.01932
1.01215
0.961589
0.978469
0.972382
0.958973
0
0
0
0.996972
0.998988
0.996392
1.00009
1.00052
1.00418
1.00773
1.00508
1.00388
1.00722
1.00806
1.00414
1.00556
1.0106
1.01352
1.00936
1.0143
1.01943
1.012
1.00765
1.02262
0.967478
0.974913
0.969879
0.963236
0.970717
0
0
0.990961
0.992572
0
0
0
0
0
0
0
1.00481
1.00747
0
0
0
0
0
0
0
1.01482
1.00978
1.01647
0.977689
0.953838
0.965032
0.983718
0.968654
0
0
0.986475
0.982933
0.99325
0.993797
0.986779
0
0
0
0
0
1.00059
1.00534
1.00555
1.00182
0
0
0
0
0
1.02901
1.0045
0.964472
0.966978
0.969562
0.969652
0.969146
0.976515
0.985331
0.989371
0.989071
0.989104
0.987754
0.993754
0.994295
0.99389
0.995289
1.00081
1.00148
1.00028
1.00451
1.00668
1.00177
1.00409
1.01437
1.01002
1.00362
1.0192
1.01199
1.0119
0.958419
0.984727
0.971799
0.957447
0.973089
0.982218
0.980327
0.988058
0.992793
0.987127
0.988006
0.994347
0.992991
0.995489
0.996169
0.997027
1.00262
1.0053
1.00013
1.0016
1.01062
1.0069
1.00093
1.01281
1.01989
1.00768
0.996524
1.03471

VECTORS velocity double
-0.000504687 0.000501557 0
-0.0055344 0.00238672 0
-0.00840289 -2.21817e-05 0
-0.0080361 -0.000542831 0
-0.00707737 -0.000129714 0
-0.00772728 0.000467701 0
-0.00830031 -0.000124689 0
-0.00758548 -0.000409975 0
-0.0073307 0.000162545 0
-0.00799662 0.000232123 0
-0.0080257 -0.000227485 0
-0.00735818 -0.000287542 0
-0.00730424 0.000211132 0
-0.006879 -0.000514191 0
-0.00610942 -1.30931e-05 0
-0.00644347 0.000204722 0
-0.00649999 -0.00015073 0
-0.00616616 -6.12453e-05 0
-0.00634744 0.000198936 0
-0.00659222 -1.27634e-05 0
-0.00625132 -0.000201932 0
-0.00622937 0.000318933 0
-0.00632743 -0.000300428 0
-0.00421769 -0.00105929 0
-0.00227491 -0.000193876 0
-0.00171227 -1.5349e-05 0
-0.0010119 -0.000543014 0
-4.31763e-05 5.71487e-06 0
-0.00246209 0.00543385 0
-0.00727061 0.00718773 0
-0.00708334 0.000791914 0
-0.00745677 -0.000607762 0
-0.00841015 -3.5191e-05 0
-0.0077631 0.000528741 0
-0.00718857 -6.03403e-05 0
-0.00790408 -0.000350487 0
-0.00815866 0.000215837 0
-0.00749259 0.000289772 0
-0.00746384 -0.000225049 0
-0.00813084 -0.000343433 0
-0.00735812 -0.00082295 0
-0.00674465 -0.00072238 0
-0.00683289 -0.000437554 0
-0.00628728 0.000222798 0
-0.00623142 -0.000134144 0
-0.00656437 -8.06783e-05 0
-0.00638423 0.000179499 0
-0.00613817 -5.56101e-05 0
-0.00648038 -0.000177123 0
-0.0065011 0.000147403 0
-0.0056365 -0.00197425 0
-0.00501537 -0.00281121 0
-0.00423116 -0.00229184 0
-0.00226876 -0.00120941 0
-0.00146773 -0.00153518 0
-0.000550943 -0.000993395 0
-0.00067352 0.00959845 0
-0.00125969 0.00585465 0
0 0 0
0 0 0
0 0 0
0 0 0
0 0 0
0 0 0
0 0 0
0 0 0
0 0 0
0 0 0
-0.000827959 -0.000978901 0
-0.000795717 -0.00117435 0
5.6257e-05 -0.000641638 0
0 0 0
0 0 0
0 0 0
0 0 0
0 0 0
0 0 0
0 0 0
-0.000767782 -0.0012133 0
-0.00245475 -0.00180114 0
-0.00297584 -0.00390141 0
-0.00166783 -0.00208329 0
-0.00108912 -0.00142315 0
-0.000330485 -0.00217341 0
0.00184118 0.00838371 0
0.00194127 0.00714075 0
0 0 0
0 0 0
0 0 0
0 0 0
0 0 0
0 0 0
0 0 0
0 0 0
0 0 0
0 0 0
0 0 0
-0.000657373 -0.00158046 0
-0.000641077 -0.00115701 0
0 0 0
0 0 0
0 0 0
0 0 0
0 0 0
0 0 0
0 0 0
0 0 0
-0.00166362 -0.00032744 0
-0.00391203 -0.00280437 0
-0.00356587 -0.00377468 0
-0.000961949 -0.00394321 0
0.000640814 -0.00198347 0
0.000275127 0.00495732 0
0.000294204 0.0105019 0
0 0 0
0 0 0
0 0 0
-0.000110296 2.02217e-05 0
-0.0018112 0.0011437 0
-0.00207506 -0.000907062 0
-0.00126021 0.000254059 0
-0.0021597 0.000343642 0
-0.00238547 -0.000208007 0
-0.00187993 -0.000125515 0
-0.00203185 0.000114855 0
-0.00242402 -0.000853754 0
-0.00317419 -0.00118015 0
-0.00350917 -0.000383868 0
-0.00330789 2.12182e-06 0
-0.00396944 0.000497775 0
-0.00481939 0.000108229 0
-0.00426114 -0.000527782 0
-0.00331753 -0.000104583 0
-0.00417532 0.000821107 0
-0.00555207 0.000558969 0
-0.00394846 -0.00067188 0
-0.00229744 -0.000867647 0
-0.00261757 -0.00511914 0
-0.00256397 -0.00640151 0
-0.000817271 -0.00196344 0
-0.00243575 0.00817698 0
-0.00246309 0.0073366 0
0 0 0
0 0 0
0 0 0
-0.00101131 0.0018795 0
-0.000532017 0.000784091 0
-0.00101049 0.000255835 0
-0.00285437 0.000317296 0
-0.00196539 0.000455381 0
-0.00173153 -0.000196351 0
-0.00224215 -9.39867e-05 0
-0.00208766 0.000181545 0
-0.00210717 -0.000192262 0
-0.00291055 -0.000181337 0
-0.00353939 -0.000187496 0
-0.00439119 0.000826456 0
-0.00434204 0.000588318 0
-0.00349523 0.000123968 0
-0.00404894 -0.00055424 0
-0.00499819 -9.61683e-05 0
-0.00413395 0.000655163 0
-0.0027634 0.000283255 0
-0.0037399 -0.00104107 0
-0.00252125 -0.00464487 0
0.00103489 -0.0052969 0
-0.000926255 -0.00374435 0
-0.00154531 -0.00563989 0
0.000577798 0.0110842 0
0.000404692 0.00425703 0
-0.000156037 0.000118109 0
0 0 0
0 0 0
0.00111154 0.00172188 0
0.00055484 0.000444542 0
-0.000453216 0.00193786 0
0 0 0
0 0 0
0 0 0
0 0 0
0 0 0
0 0 0
0 0 0
-0.000929182 0.00113311 0
-0.000897255 0.000299374 0
0 0 0
0 0 0
0 0 0
0 0 0
0 0 0
0 0 0
0 0 0
-0.00166453 -0.00666938 0
-0.00298711 -0.0049994 0
2.66389e-05 -0.00378559 0
0.00159706 -0.00554034 0
0.00282556 0.00610505 0
0.00357492 0.00919164 0
0.000516902 0.000859997 0
-0.00059274 -0.000634019 0
0 0 0
0 0 0
0.000916546 0.00236865 0
0.00112828 0.00176142 0
0 0 0
0 0 0
0 0 0
0 0 0
0 0 0
0 0 0
-0.000881829 0.00105129 0
-0.000537484 0.000693695 0
0.00038534 -0.000308908 0
0 0 0
0 0 0
0 0 0
0 0 0
0 0 0
0 0 0
-0.00139932 0.00136543 0
-0.00376616 -0.00248436 0
-0.00822861 -0.00362507 0
-0.00592772 -0.0135983 0
0.000368284 -0.00275184 0
-0.00150281 0.00378598 0
0.00104993 0.00911399 0
0.00505405 0.00141242 0
0.00208509 0.00114637 0
0 0 0
0 0 0
0.000888167 0.00131286 0
0.00109464 0.00163837 0
-0.00424575 0.00379697 0
-0.00760825 -0.00020306 0
-0.00564197 -0.00104118 0
-0.00562893 0.000934731 0
-0.00768687 0.000424074 0
-0.00672821 -0.000884544 0
-0.00462012 0.00128349 0
-0.00619853 0.000761047 0
-0.00673598 -0.000781756 0
-0.00534444 0.000112242 0
-0.00712614 0.00115669 0
-0.00811955 -0.000530549 0
-0.00571671 -0.0010689 0
-0.00573611 0.00123181 0
-0.00891685 0.00125052 0
-0.00642565 -0.000327363 0
-0.00400005 0.00202824 0
-0.00965999 -0.00010268 0
-0.0127452 -0.0167227 0
-0.00522527 -0.0096835 0
-0.00126467 0.00807926 0
-0.000252496 0.000397455 0
0.00116542 0.00166905 0
-9.66199e-05 0.0053708 0
0 0 0
0 0 0
0 0 0
-0.0023746 0.00640316 0
-0.00502546 0.00850095 0
-0.00536589 0.000207396 0
-0.00732673 -0.000910446 0
-0.00734345 0.000927078 0
-0.0052829 0.000391587 0
-0.00624324 -0.000965982 0
-0.00746918 0.000171868 0
-0.00513428 0.00103904 0
-0.00539747 0.000254151 0
-0.00803 0.000350233 0
-0.00649733 0.00122755 0
-0.00549962 -0.000541396 0
-0.00790833 -0.00106842 0
-0.00788242 0.00107743 0
-0.00470827 0.00107885 0
-0.00579307 -0.00200233 0
-0.00702999 0.00169533 0
-0.00161311 -0.00190899 0
-0.00324716 -0.00801543 0
-0.00382488 -0.0234778 0
0.00173469 0.0075563 0
-0.00629262 0.0062842 0
-0.0141998 0.00177884 0
-0.00788328 0.00148936 0
-0.00104273 -0.00164715 0
0 0 0
0 0 0
0.00172888 0.00838114 0
0.00181259 0.0087038 0
0 0 0
0 0 0
0 0 0
0 0 0
0 0 0
0 0 0
0 0 0
0.000493011 0.00119042 0
0.000456051 0.000901758 0
0 0 0
0 0 0
0 0 0
0 0 0
0 0 0
0 0 0
0 0 0
-0.00136805 -0.00246399 0
0.00614547 -0.014811 0
0.0080061 -0.0173738 0
-0.00199758 0.00781822 0
-0.0118839 0.023816 0
-0.0117216 -0.00291356 0
-0.00502338 -0.00675271 0
-0.00275741 -0.00645379 0
0 0 0
0 0 0
-0.000262882 0.00552225 0
0.00374435 0.00642322 0
0.004122 0.00480931 0
0.000766107 0.000163478 0
0.000171462 0.000181689 0
0 0 0
0 0 0
0 0 0
0 0 0
0 0 0
0.000472322 0.00159571 0
0.000177905 0.000652786 0
-0.000549319 -3.40841e-06 0
-0.000310452 -0.000182874 0
0 0 0
0 0 0
0 0 0
0 0 0
0 0 0
-0.000791463 -0.0287847 0
-0.000448645 -0.00589012 0
-0.00635319 0.0200918 0
-0.00933058 0.0188161 0
-0.000865132 -0.00795527 0
0.004975 -0.0105238 0
-0.00152435 -0.00114181 0
-0.00987332 -0.000582406 0
-0.0050721 -0.00256278 0
-0.000666734 0.00415207 0
-0.00295733 0.00668505 0
-0.000391632 0.00272069 0
0.00462621 0.00101293 0
0.00187376 0.00180842 0
0.00153275 -0.0010639 0
0.0047102 -0.000976616 0
0.0037841 0.00161951 0
0.000735143 0.00042658 0
0.00284696 -0.00160836 0
0.00589893 0.00133499 0
0.00266844 0.00310852 0
0.00116642 -0.00120587 0
0.00650775 -0.00265228 0
0.00627388 0.00241291 0
-6.20056e-05 0.00154398 0
0.00321512 -0.00383713 0
0.00914685 1.98883e-05 0
0.00250721 0.00430082 0
-0.0110539 -0.0174405 0
-0.00808704 -0.0184839 0
0.0232931 0.0151288 0
0.0503492 0.00333439 0
0.0490247 -0.00405634 0
0.035361 -0.00511798 0
0.0341471 0.00402798 0
0.0386962 -0.000681855 0
0.033894 -0.00266539 0
0.0316939 0.00124706 0
0.0396223 0.00400653 0
0.0421824 -0.00214718 0
0.0405223 0.000858356 0
0.0438676 0.0014749 0
0.044381 -0.00114335 0
0.0412035 -0.000989348 0
0.0421295 0.00163661 0
0.0451789 0.000345056 0
0.0430673 -0.00174595 0
0.0409222 0.000348159 0
0.0451517 0.00249821 0
0.0473827 -0.00114829 0
0.0418001 -0.00251625 0
0.0417248 0.00253812 0
0.0480618 0.00158305 0
0.0447848 -0.00387834 0
0.0388501 9.77543e-05 0
0.0454929 0.00432219 0
0.0489326 -0.0020801 0
0.0236165 -0.0152959 0

