# vtk DataFile Version 4.0
SiwiRVisFile
ASCII
DATASET STRUCTURED_POINTS
DIMENSIONS 28 14 1
ORIGIN 0 0 0
SPACING 1 1 1
POINT_DATA 392

SCALARS flags double 1
LOOKUP_TABLE default
1
1
1
1
1
1
1
1
1
1
1
1
1
1
1
1
1
1
1
1
1
1
1
1
1
1
1
1
1
1
1
1
1
1
1
1
1
1
1
1
1
1
1
1
1
1
1
1
1
1
1
1
1
1
1
1
1
1
1
1
1
1
1
1
1
1
1
1
1
1
1
1
1
1
1
1
1
1
1
1
1
1
1
1
1
1
1
1
1
1
1
1
1
1
1
1
1
1
1
1
1
1
1
1
1
1
1
1
1
1
1
1
1
1
1
1
1
1
1
1
1
1
1
1
1
1
1
1
1
1
1
1
1
1
1
1
1
1
1
1
1
1
1
1
1
1
1
1
1
1
1
1
1
1
1
1
1
1
1
1
1
1
1
1
1
1
1
1
1
1
1
1
1
1
1
1
1
1
1
1
1
1
1
1
1
1
1
1
1
1
1
1
1
1
1
1
1
1
1
1
1
1
1
1
1
1
1
1
1
1
1
1
1
1
1
1
1
1
1
1
1
1
1
1
1
1
1
1
1
1
1
1
1
1
1
1
1
1
1
1
1
1
1
1
1
1
1
1
1
1
1
1
1
1
1
1
1
1
1
1
1
1
1
1
1
1
1
1
1
1
1
1
1
1
1
1
1
1
1
1
1
1
1
1
1
1
1
1
1
1
1
1
1
1
1
1
1
1
1
1
1
1
1
1
1
1
1
1
1
1
1
1
1
1
1
1
1
1
1
1
1
1
1
1
1
1
1
1
1
1
1
1
1
1
1
1
1
1
1
1
1
1
1
1
1
1
1
1
1
1
1
1
1
1
1
1
1
1
1
1
1
1
1
1
1
1
1
1
1
1
1
1
1
1
1
1
1
1
1
1
1
1
1
1
1
1
1
1
1
1
1
1

SCALARS density double 1
LOOKUP_TABLE default
0.987838
0.980742
0.979945
0.998752
0.998192
0.99809
0.998056
1.00046
1.00123
1.00056
1.00299
1.00558
1.00504
1.00505
1.00609
1.00603
1.00589
1.00715
1.00827
1.00903
1.0077
1.01236
1.01751
1.01487
1.01085
1.01578
1.01794
1.01194
0.98499
0.978596
0.982714
0.999477
0.995624
0.998557
0.999981
0.999237
1.00016
1.00209
1.00317
1.00414
1.00565
1.00586
1.00549
1.00543
1.00654
1.00761
1.00753
1.0087
1.00858
1.01253
1.01631
1.01494
1.01258
1.01485
1.01637
1.01367
0.976575
0.987046
0
0
0
0
0
0
0
0
0
0
1.00563
1.00562
1.00535
0
0
0
0
0
0
0
1.01031
1.01375
1.01927
1.01328
1.01036
1.01775
0.967282
0.969729
0
0
0
0
0
0
0
0
0
0
0
1.0057
1.00553
0
0
0
0
0
0
0
0
1.01448
1.01467
1.01474
1.01437
1.01424
0.975277
0.961986
0
0
0
1.00497
0.999898
1.00525
1.00813
1.00488
1.00456
1.00778
1.00848
1.00463
1.00506
1.00918
1.00724
1.00435
1.00936
1.01207
1.00757
1.01142
1.01829
1.01538
1.00937
1.01605
1.01939
1.01114
0.967624
0.970607
0
0
0
0.999852
1.00526
1.00733
1.00279
1.00486
1.00955
1.00598
1.00432
1.00792
1.00797
1.0047
1.00623
1.00942
1.00794
1.00743
1.01133
1.01471
1.01259
1.01418
1.01626
1.01386
1.01308
1.01678
0.963584
0.977939
0.972025
0
0
1.00485
1.00867
1.00158
0
0
0
0
0
0
0
1.00505
1.00648
0
0
0
0
0
0
0
1.02041
1.01331
1.00939
1.01781
0.974028
0.964261
0.966785
0.974571
0
0
1.00005
1.00125
0
0
0
0
0
0
1.00653
1.00688
1.00508
0
0
0
0
0
0
1.01408
1.01082
1.01619
1.01872
1.00993
0.973718
0.961015
0.966802
0.978225
0
0
0.996097
1.00292
1.00182
0.990928
0.999169
1.00535
1.00392
1.0035
1.00609
1.00759
1.00597
1.0038
1.00692
1.00977
1.00581
1.01012
1.01637
1.0159
1.00978
1.0149
1.01931
1.01214
0.96159
0.97847
0.972383
0.958975
0
0
0
0.996973
0.998988
0.996394
1.00009
1.00052
1.00418
1.00773
1.00508
1.00388
1.00722
1.00806
1.00414
1.00556
1.0106
1.01352
1.00935
1.01429
1.01943
1.01199
1.00765
1.02262
0.96748
0.974916
0.969882
0.963235
0.970719
0
0
0.990962
0.992574
0
0
0
0
0
0
0
1.00481
1.00747
0
0
0
0
0
0
0
1.01482
1.00977
1.01646
0.97769
0.953834
0.965037
0.983721
0.968656
0
0
0.986476
0.982937
0.993249
0.993803
0.986779
0
0
0
0
0
1.0006
1.00534
1.00556
1.00183
0
0
0
0
0
1.02901
1.00451
0.964476
0.966986
0.969558
0.969655
0.969145
0.976518
0.985332
0.989376
0.989067
0.989112
0.987748
0.993759
0.994293
0.993899
0.995282
1.00082
1.00147
1.00029
1.00451
1.00668
1.00179
1.00408
1.01437
1.01002
1.00361
1.01919
1.01197
1.01189
0.958418
0.984728
0.971801
0.957452
0.973086
0.982227
0.98032
0.988071
0.992779
0.987149
0.987983
0.99438
0.99296
0.995516
0.996154
0.997038
1.00263
1.00529
1.00016
1.00157
1.01068
1.00683
1.00105
1.01268
1.02001
1.00756
0.996614
1.03465

VECTORS velocity double
-0.000510058 0.000516442 0
-0.00553096 0.00240253 0
-0.00840287 3.74668e-06 0
-0.00803421 -0.000507781 0
-0.00707828 -9.53958e-05 0
-0.00772645 0.000500021 0
-0.00829964 -9.29886e-05 0
-0.00758502 -0.000379699 0
-0.00733065 0.000189816 0
-0.00799616 0.000256518 0
-0.00802507 -0.000205271 0
-0.00735793 -0.000268297 0
-0.0073037 0.000226842 0
-0.00687839 -0.00050185 0
-0.00610865 -4.81498e-06 0
-0.00644268 0.000207497 0
-0.00649887 -0.000153414 0
-0.00616523 -6.89279e-05 0
-0.00634629 0.000186343 0
-0.00659103 -3.09954e-05 0
-0.00625016 -0.000228632 0
-0.00622693 0.00027838 0
-0.00632747 -0.000368363 0
-0.00422009 -0.001167 0
-0.00227158 -0.000335348 0
-0.00171375 -0.000189426 0
-0.00101257 -0.000729954 0
-3.64297e-05 -0.000164723 0
-0.00246419 0.0054185 0
-0.00726804 0.00716849 0
-0.00708544 0.000765235 0
-0.00745432 -0.000640476 0
-0.00841015 -6.8954e-05 0
-0.00776204 0.000494779 0
-0.00718889 -9.19723e-05 0
-0.00790349 -0.000379591 0
-0.00815795 0.000188225 0
-0.00749236 0.000264648 0
-0.00746357 -0.000246896 0
-0.00813058 -0.000362094 0
-0.00735749 -0.000838758 0
-0.00674401 -0.000734792 0
-0.00683193 -0.000446598 0
-0.00628644 0.000219807 0
-0.00623044 -0.000131594 0
-0.00656347 -7.29973e-05 0
-0.00638327 0.000192292 0
-0.00613644 -3.74274e-05 0
-0.00647982 -0.000150574 0
-0.00649912 0.0001902 0
-0.00563755 -0.00190618 0
-0.00501309 -0.00270762 0
-0.00423149 -0.00214868 0
-0.00226669 -0.00103432 0
-0.00146555 -0.00135004 0
-0.000558146 -0.000811532 0
-0.000679967 0.00961505 0
-0.00125476 0.00587561 0
0 0 0
0 0 0
0 0 0
0 0 0
0 0 0
0 0 0
0 0 0
0 0 0
0 0 0
0 0 0
-0.000827384 -0.000963732 0
-0.000796515 -0.00116277 0
5.72264e-05 -0.000633361 0
0 0 0
0 0 0
0 0 0
0 0 0
0 0 0
0 0 0
0 0 0
-0.000771252 -0.00127853 0
-0.00245117 -0.00190279 0
-0.00297544 -0.0040424 0
-0.00167021 -0.00225692 0
-0.00109197 -0.00161021 0
-0.000317076 -0.00236143 0
0.0018477 0.00836309 0
0.00193423 0.00711931 0
0 0 0
0 0 0
0 0 0
0 0 0
0 0 0
0 0 0
0 0 0
0 0 0
0 0 0
0 0 0
0 0 0
-0.000658836 -0.00159294 0
-0.000639823 -0.00116562 0
0 0 0
0 0 0
0 0 0
0 0 0
0 0 0
0 0 0
0 0 0
0 0 0
-0.00166004 -0.000224459 0
-0.00391455 -0.00266953 0
-0.00356368 -0.00360501 0
-0.000959345 -0.00375259 0
0.000633654 -0.00179328 0
0.000269149 0.00497809 0
0.000300875 0.0105251 0
0 0 0
0 0 0
0 0 0
-0.00010711 2.6057e-05 0
-0.00181423 0.00114947 0
-0.00207125 -0.000898523 0
-0.00126276 0.000264338 0
-0.00215697 0.000356794 0
-0.00238643 -0.000192801 0
-0.00187872 -0.000110958 0
-0.00203202 0.000127548 0
-0.00242309 -0.000843167 0
-0.003175 -0.00117326 0
-0.00350856 -0.000382854 0
-0.00330726 3.15975e-08 0
-0.00396832 0.000493254 0
-0.00481785 0.000100689 0
-0.0042602 -0.000541534 0
-0.00331657 -0.000128965 0
-0.00417246 0.000784573 0
-0.00555364 0.000486284 0
-0.00394621 -0.000780626 0
-0.00230655 -0.00100123 0
-0.00260429 -0.00526908 0
-0.00258073 -0.00656263 0
-0.000799991 -0.00214715 0
-0.00241838 0.00815599 0
-0.00247773 0.00730648 0
0 0 0
0 0 0
0 0 0
-0.00100688 0.00187336 0
-0.000535907 0.000777524 0
-0.00100641 0.000248029 0
-0.00285703 0.000307055 0
-0.00196236 0.000441693 0
-0.00173314 -0.0002113 0
-0.00224025 -0.000108334 0
-0.00208832 0.000168503 0
-0.00210561 -0.000203016 0
-0.00291176 -0.000188499 0
-0.00353858 -0.00018973 0
-0.00439092 0.000827173 0
-0.00434095 0.000592677 0
-0.00349389 0.000131653 0
-0.00404743 -0.000541216 0
-0.00499825 -7.25181e-05 0
-0.00412832 0.000694968 0
-0.00277671 0.000357632 0
-0.00371649 -0.000935103 0
-0.00254305 -0.00451954 0
0.00106643 -0.00517263 0
-0.00095531 -0.00361836 0
-0.00152785 -0.00548372 0
0.000574717 0.0111106 0
0.00039929 0.00429136 0
-0.000139065 0.000186833 0
0 0 0
0 0 0
0.00111635 0.00172727 0
0.00054905 0.000450832 0
-0.00044726 0.00194494 0
0 0 0
0 0 0
0 0 0
0 0 0
0 0 0
0 0 0
0 0 0
-0.000925295 0.00113509 0
-0.000901256 0.000297943 0
0 0 0
0 0 0
0 0 0
0 0 0
0 0 0
0 0 0
0 0 0
-0.00173084 -0.00677089 0
-0.00293088 -0.00509088 0
-3.13606e-05 -0.00386942 0
0.00165708 -0.00563864 0
0.00283094 0.00606647 0
0.00356737 0.00915027 0
0.000522697 0.000784448 0
-0.0005992 -0.000741525 0
0 0 0
0 0 0
0.00090449 0.00236095 0
0.00113977 0.00175312 0
0 0 0
0 0 0
0 0 0
0 0 0
0 0 0
0 0 0
-0.000890819 0.00104356 0
-0.000531237 0.000685452 0
0.000384606 -0.000312745 0
0 0 0
0 0 0
0 0 0
0 0 0
0 0 0
0 0 0
-0.00128743 0.00149501 0
-0.00386281 -0.00239517 0
-0.0081324 -0.00357079 0
-0.00601932 -0.0135684 0
0.000479362 -0.00272305 0
-0.00150323 0.00383347 0
0.00104904 0.00917719 0
0.00505618 0.0015025 0
0.00207066 0.00127059 0
0 0 0
0 0 0
0.000876096 0.00132004 0
0.00110522 0.00164987 0
-0.00425791 0.00380407 0
-0.00759373 -0.000186358 0
-0.00565157 -0.00103709 0
-0.00562091 0.000940136 0
-0.00769191 0.000425573 0
-0.00672209 -0.000883156 0
-0.00462753 0.00128916 0
-0.00619101 0.000779211 0
-0.00674008 -0.000777832 0
-0.00532907 0.000101563 0
-0.00715187 0.00115291 0
-0.0080667 -0.000554417 0
-0.00579483 -0.00118213 0
-0.00561019 0.00119252 0
-0.00906522 0.00108112 0
-0.00626855 -0.000419226 0
-0.00417351 0.00191453 0
-0.00949465 -0.000123348 0
-0.0128425 -0.0166971 0
-0.00517969 -0.00960222 0
-0.00128182 0.00802176 0
-0.000221931 0.000311432 0
0.00112856 0.00155791 0
-7.4055e-05 0.00519384 0
0 0 0
0 0 0
0 0 0
-0.00236186 0.00638158 0
-0.00504359 0.00850017 0
-0.00534421 0.000186768 0
-0.00734188 -0.000914653 0
-0.00733273 0.000920495 0
-0.0052886 0.000390052 0
-0.00624461 -0.000968337 0
-0.00745159 0.000163708 0
-0.00516003 0.00100327 0
-0.00537083 0.00024062 0
-0.00805105 0.000361742 0
-0.00648476 0.00122202 0
-0.00546563 -0.000526132 0
-0.00798282 -0.000962119 0
-0.00777472 0.00112346 0
-0.00485153 0.00126711 0
-0.00561505 -0.00194649 0
-0.00721047 0.00185346 0
-0.00142915 -0.00185775 0
-0.00342121 -0.0080997 0
-0.00367068 -0.0236124 0
0.00158223 0.0076297 0
-0.00617099 0.00637434 0
-0.0142641 0.00190941 0
-0.00783816 0.0017011 0
-0.00109205 -0.00138202 0
0 0 0
0 0 0
0.00180043 0.00841264 0
0.00173997 0.00870807 0
0 0 0
0 0 0
0 0 0
0 0 0
0 0 0
0 0 0
0 0 0
0.000651452 0.00121405 0
0.000293675 0.000922068 0
0 0 0
0 0 0
0 0 0
0 0 0
0 0 0
0 0 0
0 0 0
-0.00139498 -0.00254805 0
0.00616991 -0.0146919 0
0.00805454 -0.0172587 0
-0.00213811 0.00771121 0
-0.0118079 0.0236964 0
-0.0117918 -0.00310359 0
-0.00499781 -0.006917 0
-0.002798 -0.00665063 0
0 0 0
0 0 0
-0.000163914 0.00552584 0
0.00362355 0.00634174 0
0.00431742 0.00486227 0
0.00044806 6.46653e-05 0
0.000579174 0.000361544 0
0 0 0
0 0 0
0 0 0
0 0 0
0 0 0
0.000714336 0.00139804 0
-5.3562e-05 0.000784136 0
-0.00041476 -0.000349468 0
-0.00034819 0.000538745 0
0 0 0
0 0 0
0 0 0
0 0 0
0 0 0
-0.000416673 -0.0288227 0
-0.000715776 -0.00622038 0
-0.00658732 0.0202796 0
-0.00927165 0.0190425 0
-0.00087912 -0.00774077 0
0.00494336 -0.0104137 0
-0.00150928 -0.000954028 0
-0.00986515 -0.000550403 0
-0.00503439 -0.00224133 0
-0.000695859 0.00407332 0
-0.00299184 0.00692086 0
-0.000334569 0.00261721 0
0.00444996 0.0012396 0
0.00223256 0.00155452 0
0.00103992 -0.00109212 0
0.00543456 -0.00078799 0
0.0027903 0.00133125 0
0.00178969 0.000782012 0
0.00186665 -0.00213937 0
0.00677715 0.00180758 0
0.0019429 0.00281091 0
0.00163768 -0.000678583 0
0.00622457 -0.00369313 0
0.00650669 0.00378294 0
-0.000310047 5.83834e-05 0
0.0034335 -0.00207809 0
0.00900267 -0.00157137 0
0.00219206 0.00511096 0
-0.0102968 -0.0176715 0
-0.00883217 -0.0181165 0
0.0232104 0.0147101 0
0.0503232 0.00307425 0
0.0490125 -0.00422222 0
0.0354283 -0.00522534 0
0.0340487 0.00378146 0
0.0388162 -0.000751485 0
0.0337274 -0.00287097 0
0.0319198 0.00129046 0
0.0393525 0.00369774 0
0.0424901 -0.00205802 0
0.040151 0.000657066 0
0.0442715 0.00174103 0
0.0440091 -0.00115292 0
0.041463 -0.00110848 0
0.0420119 0.00189403 0
0.0451682 0.00010816 0
0.0432331 -0.00141311 0
0.0405843 -0.000125471 0
0.0455686 0.00274802 0
0.0468079 -0.00155743 0
0.0427313 -0.00176957 0
0.040486 0.001495 0
0.0494247 0.00271828 0
0.0431432 -0.00497162 0
0.0405876 0.00115017 0
0.0441476 0.00358778 0
0.0503842 -0.00175971 0
0.0202574 -0.0145531 0

