# vtk DataFile Version 4.0
SiwiRVisFile
ASCII
DATASET STRUCTURED_POINTS
DIMENSIONS 28 14 1
ORIGIN 0 0 0
SPACING 1 1 1
POINT_DATA 392

SCALARS flags double 1
LOOKUP_TABLE default
1
1
1
1
1
1
1
1
1
1
1
1
1
1
1
1
1
1
1
1
1
1
1
1
1
1
1
1
1
1
1
1
1
1
1
1
1
1
1
1
1
1
1
1
1
1
1
1
1
1
1
1
1
1
1
1
1
1
1
1
1
1
1
1
1
1
1
1
1
1
1
1
1
1
1
1
1
1
1
1
1
1
1
1
1
1
1
1
1
1
1
1
1
1
1
1
1
1
1
1
1
1
1
1
1
1
1
1
1
1
1
1
1
1
1
1
1
1
1
1
1
1
1
1
1
1
1
1
1
1
1
1
1
1
1
1
1
1
1
1
1
1
1
1
1
1
1
1
1
1
1
1
1
1
1
1
1
1
1
1
1
1
1
1
1
1
1
1
1
1
1
1
1
1
1
1
1
1
1
1
1
1
1
1
1
1
1
1
1
1
1
1
1
1
1
1
1
1
1
1
1
1
1
1
1
1
1
1
1
1
1
1
1
1
1
1
1
1
1
1
1
1
1
1
1
1
1
1
1
1
1
1
1
1
1
1
1
1
1
1
1
1
1
1
1
1
1
1
1
1
1
1
1
1
1
1
1
1
1
1
1
1
1
1
1
1
1
1
1
1
1
1
1
1
1
1
1
1
1
1
1
1
1
1
1
1
1
1
1
1
1
1
1
1
1
1
1
1
1
1
1
1
1
1
1
1
1
1
1
1
1
1
1
1
1
1
1
1
1
1
1
1
1
1
1
1
1
1
1
1
1
1
1
1
1
1
1
1
1
1
1
1
1
1
1
1
1
1
1
1
1
1
1
1
1
1
1
1
1
1
1
1
1
1
1
1
1
1
1
1
1
1
1
1
1
1
1
1
1
1
1
1
1
1
1
1
1
1
1
1
1
1

SCALARS density double 1
LOOKUP_TABLE default
0.987837
0.980741
0.979945
0.998752
0.998193
0.998091
0.998056
1.00046
1.00123
1.00056
1.00299
1.00558
1.00504
1.00505
1.00609
1.00603
1.00589
1.00715
1.00827
1.00903
1.0077
1.01236
1.01751
1.01487
1.01086
1.01578
1.01794
1.01194
0.98499
0.978596
0.982713
0.999477
0.995625
0.998557
0.999981
0.999238
1.00016
1.00209
1.00317
1.00414
1.00565
1.00586
1.00549
1.00543
1.00654
1.00761
1.00753
1.0087
1.00858
1.01253
1.01632
1.01494
1.01259
1.01485
1.01637
1.01367
0.976575
0.987045
0
0
0
0
0
0
0
0
0
0
1.00563
1.00562
1.00535
0
0
0
0
0
0
0
1.01031
1.01375
1.01927
1.01328
1.01036
1.01775
0.96728
0.969728
0
0
0
0
0
0
0
0
0
0
0
1.0057
1.00553
0
0
0
0
0
0
0
0
1.01449
1.01467
1.01475
1.01438
1.01424
0.975275
0.961985
0
0
0
1.00497
0.999898
1.00525
1.00813
1.00488
1.00456
1.00778
1.00848
1.00463
1.00506
1.00918
1.00724
1.00435
1.00936
1.01207
1.00757
1.01142
1.01829
1.01538
1.00937
1.01605
1.0194
1.01114
0.967623
0.970605
0
0
0
0.999851
1.00526
1.00733
1.00279
1.00486
1.00955
1.00598
1.00432
1.00793
1.00797
1.0047
1.00623
1.00942
1.00794
1.00743
1.01133
1.01471
1.01259
1.01418
1.01626
1.01386
1.01308
1.01678
0.963582
0.977936
0.972023
0
0
1.00485
1.00867
1.00158
0
0
0
0
0
0
0
1.00505
1.00647
0
0
0
0
0
0
0
1.02041
1.01332
1.00939
1.01781
0.974026
0.964259
0.966783
0.974568
0
0
1.00005
1.00125
0
0
0
0
0
0
1.00653
1.00688
1.00508
0
0
0
0
0
0
1.01408
1.01082
1.01619
1.01872
1.00993
0.973716
0.961013
0.9668
0.978223
0
0
0.996096
1.00292
1.00182
0.990927
0.999168
1.00535
1.00392
1.0035
1.00609
1.00759
1.00597
1.0038
1.00691
1.00977
1.00581
1.01013
1.01637
1.0159
1.00977
1.0149
1.01932
1.01215
0.961589
0.978469
0.972382
0.958973
0
0
0
0.996972
0.998988
0.996392
1.00009
1.00052
1.00418
1.00773
1.00508
1.00388
1.00722
1.00806
1.00414
1.00556
1.0106
1.01352
1.00936
1.0143
1.01943
1.012
1.00765
1.02262
0.967478
0.974913
0.969879
0.963236
0.970717
0
0
0.990961
0.992572
0
0
0
0
0
0
0
1.00481
1.00747
0
0
0
0
0
0
0
1.01482
1.00978
1.01647
0.97769
0.953839
0.965032
0.983718
0.968654
0
0
0.986475
0.982933
0.99325
0.993797
0.986779
0
0
0
0
0
1.00059
1.00534
1.00555
1.00182
0
0
0
0
0
1.02901
1.0045
0.964472
0.966977
0.969562
0.969653
0.969146
0.976515
0.985331
0.989371
0.989071
0.989104
0.987753
0.993754
0.994295
0.99389
0.995289
1.00081
1.00148
1.00028
1.00451
1.00668
1.00177
1.00409
1.01437
1.01002
1.00362
1.0192
1.01199
1.0119
0.958419
0.984727
0.971799
0.957447
0.973089
0.982218
0.980327
0.988058
0.992793
0.987127
0.988006
0.994347
0.992991
0.995489
0.996169
0.997026
1.00262
1.0053
1.00013
1.0016
1.01062
1.0069
1.00093
1.01281
1.01989
1.00768
0.996524
1.03471

VECTORS velocity double
-0.000505837 0.000503251 0
-0.00553373 0.00238942 0
-0.0084031 -1.66409e-05 0
-0.00803572 -0.000534122 0
-0.00707771 -0.000119737 0
-0.00772715 0.000478712 0
-0.00830022 -0.000112353 0
-0.0075854 -0.000396575 0
-0.00733086 0.00017613 0
-0.00799654 0.000245845 0
-0.00802554 -0.000213459 0
-0.00735829 -0.000273733 0
-0.00730417 0.000224101 0
-0.00687895 -0.0005015 0
-0.00610954 -8.0447e-07 0
-0.00644344 0.000216635 0
-0.00649978 -0.000139006 0
-0.00616635 -5.15237e-05 0
-0.00634736 0.000206344 0
-0.00659224 -7.53797e-06 0
-0.00625131 -0.000198829 0
-0.00622946 0.000319919 0
-0.00632736 -0.00030098 0
-0.00421786 -0.00106126 0
-0.0022748 -0.00019694 0
-0.00171237 -1.93685e-05 0
-0.00101187 -0.000547509 0
-4.31135e-05 1.45034e-06 0
-0.00246286 0.00543222 0
-0.00726994 0.00718483 0
-0.00708395 0.000786221 0
-0.00745634 -0.000615932 0
-0.00841025 -4.50345e-05 0
-0.00776285 0.000517199 0
-0.00718883 -7.26258e-05 0
-0.00790398 -0.000363392 0
-0.00815851 0.000202054 0
-0.00749263 0.000275671 0
-0.00746391 -0.000238812 0
-0.00813073 -0.000356847 0
-0.00735824 -0.000835779 0
-0.00674459 -0.000734549 0
-0.00683279 -0.000449464 0
-0.00628741 0.000210795 0
-0.00623118 -0.000145663 0
-0.00656448 -9.0317e-05 0
-0.00638415 0.000171953 0
-0.00613826 -6.08307e-05 0
-0.00648037 -0.000180149 0
-0.00650117 0.00014648 0
-0.00563649 -0.00197365 0
-0.00501543 -0.00280933 0
-0.00423109 -0.00228877 0
-0.00226883 -0.00120541 0
-0.00146764 -0.0015308 0
-0.000551139 -0.000988999 0
-0.000674393 0.00960004 0
-0.00125896 0.00585731 0
0 0 0
0 0 0
0 0 0
0 0 0
0 0 0
0 0 0
0 0 0
0 0 0
0 0 0
0 0 0
-0.000827791 -0.000966667 0
-0.000795695 -0.0011629 0
5.61747e-05 -0.000630621 0
0 0 0
0 0 0
0 0 0
0 0 0
0 0 0
0 0 0
0 0 0
-0.000767616 -0.00121386 0
-0.00245483 -0.00180295 0
-0.00297573 -0.00390446 0
-0.00166805 -0.0020873 0
-0.00108902 -0.00142759 0
-0.000330403 -0.00217783 0
0.00184193 0.0083824 0
0.00194047 0.00713898 0
0 0 0
0 0 0
0 0 0
0 0 0
0 0 0
0 0 0
0 0 0
0 0 0
0 0 0
0 0 0
0 0 0
-0.00065765 -0.00159077 0
-0.000640683 -0.00116657 0
0 0 0
0 0 0
0 0 0
0 0 0
0 0 0
0 0 0
0 0 0
0 0 0
-0.00166382 -0.000325627 0
-0.00391179 -0.00280144 0
-0.00356608 -0.00377066 0
-0.000961692 -0.00393867 0
0.000640433 -0.00197905 0
0.000274283 0.00495799 0
0.000295099 0.0105025 0
0 0 0
0 0 0
0 0 0
-0.000108915 2.04546e-05 0
-0.00181257 0.0011441 0
-0.00207381 -0.000905754 0
-0.00126135 0.000256611 0
-0.00215866 0.000348166 0
-0.00238629 -0.000201827 0
-0.00187923 -0.000118018 0
-0.00203233 0.000123541 0
-0.00242348 -0.000844347 0
-0.00317469 -0.00117203 0
-0.00350879 -0.000377994 0
-0.00330831 6.63815e-06 0
-0.00396923 0.000502439 0
-0.0048193 0.000113382 0
-0.00426127 -0.000523551 0
-0.00331736 -0.000101613 0
-0.00417565 0.000822298 0
-0.00555172 0.000558609 0
-0.00394884 -0.000673745 0
-0.00229716 -0.000870629 0
-0.00261777 -0.00512309 0
-0.0025639 -0.00640573 0
-0.000817208 -0.00196808 0
-0.00243633 0.00817698 0
-0.00246257 0.00733715 0
0 0 0
0 0 0
0 0 0
-0.00100997 0.00187932 0
-0.000533314 0.000783673 0
-0.00100923 0.000254749 0
-0.00285556 0.00031476 0
-0.00196426 0.000450735 0
-0.00173251 -0.000202441 0
-0.00224132 -0.00010139 0
-0.00208823 0.000172856 0
-0.00210678 -0.000201291 0
-0.00291102 -0.000188643 0
-0.00353898 -0.000192585 0
-0.00439144 0.000822218 0
-0.00434186 0.000583507 0
-0.00349515 0.000118798 0
-0.00404914 -0.000558241 0
-0.00499791 -9.91135e-05 0
-0.00413422 0.000653858 0
-0.00276322 0.000283562 0
-0.00374011 -0.00103927 0
-0.00252111 -0.00464182 0
0.00103482 -0.00529305 0
-0.000925885 -0.00374035 0
-0.00154613 -0.00563527 0
0.000578127 0.0110834 0
0.000404432 0.00425569 0
-0.000156048 0.000114705 0
0 0 0
0 0 0
0.00111278 0.00172189 0
0.000553609 0.000444862 0
-0.000452006 0.00193858 0
0 0 0
0 0 0
0 0 0
0 0 0
0 0 0
0 0 0
0 0 0
-0.000928158 0.00113742 0
-0.000898001 0.000302964 0
0 0 0
0 0 0
0 0 0
0 0 0
0 0 0
0 0 0
0 0 0
-0.00166394 -0.0066723 0
-0.00298778 -0.0050031 0
2.67947e-05 -0.00378995 0
0.0015974 -0.00554456 0
0.00282627 0.0061067 0
0.00357412 0.00919362 0
0.000517915 0.000863734 0
-0.00059372 -0.000627912 0
0 0 0
0 0 0
0.000915192 0.00236848 0
0.00112975 0.00176102 0
0 0 0
0 0 0
0 0 0
0 0 0
0 0 0
0 0 0
-0.000882512 0.00104762 0
-0.00053692 0.000690179 0
0.000384711 -0.000311276 0
0 0 0
0 0 0
0 0 0
0 0 0
0 0 0
0 0 0
-0.00139987 0.00136807 0
-0.00376563 -0.00248134 0
-0.00822916 -0.00362156 0
-0.00592692 -0.0135943 0
0.000367529 -0.00274753 0
-0.00150127 0.00378378 0
0.00104867 0.00911058 0
0.00505548 0.00140779 0
0.00208364 0.00114013 0
0 0 0
0 0 0
0.000886673 0.00131301 0
0.00109601 0.00163867 0
-0.00424715 0.00379762 0
-0.00760692 -0.000200908 0
-0.00564304 -0.00103788 0
-0.00562798 0.000938625 0
-0.00768779 0.000427394 0
-0.00672724 -0.000880587 0
-0.0046209 0.00128698 0
-0.00619784 0.000763759 0
-0.00673648 -0.000780585 0
-0.00534404 0.000111595 0
-0.0071265 0.00115423 0
-0.00811959 -0.000533233 0
-0.00571654 -0.00107154 0
-0.00573634 0.00122898 0
-0.00891651 0.00124774 0
-0.00642608 -0.000330235 0
-0.00399951 0.00202485 0
-0.00966066 -0.000106145 0
-0.012745 -0.0167256 0
-0.00522489 -0.00968802 0
-0.0012638 0.00808195 0
-0.000254098 0.000401908 0
0.00116772 0.00167483 0
-9.82268e-05 0.00537845 0
0 0 0
0 0 0
0 0 0
-0.00237226 0.00640311 0
-0.00502718 0.00850044 0
-0.00536471 0.000205472 0
-0.00732765 -0.000913361 0
-0.00734235 0.000922851 0
-0.00528399 0.00038805 0
-0.00624232 -0.000969657 0
-0.00746985 0.000168559 0
-0.0051337 0.00103664 0
-0.00539793 0.000253601 0
-0.00802967 0.000351344 0
-0.00649767 0.00123035 0
-0.00549939 -0.000538794 0
-0.00790824 -0.00106606 0
-0.00788282 0.00108056 0
-0.00470786 0.00108187 0
-0.00579321 -0.00199963 0
-0.0070303 0.00169914 0
-0.0016128 -0.0019053 0
-0.0032464 -0.00801283 0
-0.00382654 -0.0234744 0
0.00174024 0.00755246 0
-0.00629658 0.00627976 0
-0.0141982 0.00177211 0
-0.00788411 0.00148045 0
-0.00104121 -0.00165715 0
0 0 0
0 0 0
0.00173093 0.00837989 0
0.00181108 0.00870291 0
0 0 0
0 0 0
0 0 0
0 0 0
0 0 0
0 0 0
0 0 0
0.000492423 0.001191 0
0.000457328 0.000899434 0
0 0 0
0 0 0
0 0 0
0 0 0
0 0 0
0 0 0
0 0 0
-0.00137028 -0.002468 0
0.00614549 -0.0148139 0
0.0080073 -0.017376 0
-0.00199409 0.0078232 0
-0.0118853 0.0238213 0
-0.0117199 -0.00290457 0
-0.00502385 -0.00674467 0
-0.00275562 -0.00644706 0
0 0 0
0 0 0
-0.000260037 0.00552583 0
0.00374288 0.00642656 0
0.00412401 0.00481334 0
0.000763954 0.00016766 0
0.000174497 0.000185265 0
0 0 0
0 0 0
0 0 0
0 0 0
0 0 0
0.000473849 0.00159971 0
0.000177978 0.000658414 0
-0.000549932 2.43098e-06 0
-0.000308788 -0.000178384 0
0 0 0
0 0 0
0 0 0
0 0 0
0 0 0
-0.000788819 -0.0287817 0
-0.000450329 -0.00588728 0
-0.0063441 0.0200849 0
-0.00933261 0.0188061 0
-0.00086454 -0.00796503 0
0.00497613 -0.01053 0
-0.0015257 -0.00114683 0
-0.00987275 -0.000586614 0
-0.00507393 -0.00257165 0
-0.000664777 0.00414663 0
-0.00295873 0.00667948 0
-0.000390011 0.00271578 0
0.00462535 0.00100779 0
0.00187426 0.00180471 0
0.00153224 -0.00106789 0
0.00471013 -0.000980878 0
0.00378439 0.00161511 0
0.000734624 0.000421777 0
0.00284676 -0.00161426 0
0.00589917 0.00132986 0
0.00266903 0.00310244 0
0.00116646 -0.0012119 0
0.00650772 -0.00265674 0
0.00627438 0.00241035 0
-6.32151e-05 0.00153921 0
0.00321519 -0.00384344 0
0.00914809 1.61978e-05 0
0.00250574 0.00429577 0
-0.0110531 -0.0174438 0
-0.00808632 -0.0184868 0
0.0232953 0.0151434 0
0.0503512 0.00334619 0
0.0490244 -0.00404881 0
0.0353596 -0.00511289 0
0.0341483 0.00403537 0
0.0386955 -0.000676686 0
0.0338944 -0.00265854 0
0.0316932 0.00125307 0
0.0396232 0.00401369 0
0.0421819 -0.00214217 0
0.0405228 0.000864552 0
0.0438674 0.0014797 0
0.0443809 -0.00113935 0
0.0412033 -0.000984959 0
0.0421297 0.00164179 0
0.0451788 0.000349774 0
0.0430673 -0.00174136 0
0.0409219 0.000353588 0
0.0451525 0.00250523 0
0.0473824 -0.00114271 0
0.0417999 -0.00251196 0
0.0417247 0.00254243 0
0.0480623 0.00158838 0
0.0447843 -0.00387414 0
0.0388502 0.000101851 0
0.045494 0.00432799 0
0.0489328 -0.00207704 0
0.023609 -0.0152921 0

