# vtk DataFile Version 4.0
SiwiRVisFile
ASCII
DATASET STRUCTURED_POINTS
DIMENSIONS 28 14 1
ORIGIN 0 0 0
SPACING 1 1 1
POINT_DATA 392

SCALARS flags double 1
LOOKUP_TABLE default
1
1
1
1
1
1
1
1
1
1
1
1
1
1
1
1
1
1
1
1
1
1
1
1
1
1
1
1
1
1
1
1
1
1
1
1
1
1
1
1
1
1
1
1
1
1
1
1
1
1
1
1
1
1
1
1
1
1
1
1
1
1
1
1
1
1
1
1
1
1
1
1
1
1
1
1
1
1
1
1
1
1
1
1
1
1
1
1
1
1
1
1
1
1
1
1
1
1
1
1
1
1
1
1
1
1
1
1
1
1
1
1
1
1
1
1
1
1
1
1
1
1
1
1
1
1
1
1
1
1
1
1
1
1
1
1
1
1
1
1
1
1
1
1
1
1
1
1
1
1
1
1
1
1
1
1
1
1
1
1
1
1
1
1
1
1
1
1
1
1
1
1
1
1
1
1
1
1
1
1
1
1
1
1
1
1
1
1
1
1
1
1
1
1
1
1
1
1
1
1
1
1
1
1
1
1
1
1
1
1
1
1
1
1
1
1
1
1
1
1
1
1
1
1
1
1
1
1
1
1
1
1
1
1
1
1
1
1
1
1
1
1
1
1
1
1
1
1
1
1
1
1
1
1
1
1
1
1
1
1
1
1
1
1
1
1
1
1
1
1
1
1
1
1
1
1
1
1
1
1
1
1
1
1
1
1
1
1
1
1
1
1
1
1
1
1
1
1
1
1
1
1
1
1
1
1
1
1
1
1
1
1
1
1
1
1
1
1
1
1
1
1
1
1
1
1
1
1
1
1
1
1
1
1
1
1
1
1
1
1
1
1
1
1
1
1
1
1
1
1
1
1
1
1
1
1
1
1
1
1
1
1
1
1
1
1
1
1
1
1
1
1
1
1
1
1
1
1
1
1
1
1
1
1
1
1
1
1
1
1
1
1

SCALARS density double 1
LOOKUP_TABLE default
0.987837
0.980741
0.979945
0.998752
0.998193
0.998091
0.998056
1.00046
1.00123
1.00056
1.00299
1.00558
1.00504
1.00505
1.00609
1.00603
1.00589
1.00715
1.00827
1.00903
1.0077
1.01236
1.01751
1.01487
1.01086
1.01578
1.01794
1.01194
0.98499
0.978596
0.982713
0.999477
0.995625
0.998557
0.999981
0.999238
1.00016
1.00209
1.00317
1.00414
1.00565
1.00586
1.00549
1.00543
1.00654
1.00761
1.00753
1.0087
1.00858
1.01253
1.01632
1.01494
1.01259
1.01485
1.01637
1.01367
0.976575
0.987045
0
0
0
0
0
0
0
0
0
0
1.00563
1.00562
1.00535
0
0
0
0
0
0
0
1.01031
1.01375
1.01927
1.01328
1.01036
1.01775
0.96728
0.969728
0
0
0
0
0
0
0
0
0
0
0
1.0057
1.00553
0
0
0
0
0
0
0
0
1.01449
1.01467
1.01475
1.01438
1.01424
0.975275
0.961985
0
0
0
1.00497
0.999898
1.00525
1.00813
1.00488
1.00456
1.00778
1.00848
1.00463
1.00506
1.00918
1.00724
1.00435
1.00936
1.01207
1.00757
1.01142
1.01829
1.01538
1.00937
1.01605
1.0194
1.01114
0.967623
0.970605
0
0
0
0.999851
1.00526
1.00733
1.00279
1.00486
1.00955
1.00598
1.00432
1.00793
1.00797
1.0047
1.00623
1.00942
1.00794
1.00743
1.01133
1.01471
1.01259
1.01418
1.01626
1.01386
1.01308
1.01678
0.963582
0.977936
0.972023
0
0
1.00485
1.00867
1.00158
0
0
0
0
0
0
0
1.00505
1.00647
0
0
0
0
0
0
0
1.02041
1.01332
1.00939
1.01781
0.974026
0.964259
0.966784
0.974568
0
0
1.00005
1.00125
0
0
0
0
0
0
1.00653
1.00688
1.00508
0
0
0
0
0
0
1.01408
1.01082
1.01619
1.01872
1.00993
0.973716
0.961013
0.9668
0.978223
0
0
0.996096
1.00292
1.00182
0.990927
0.999168
1.00535
1.00392
1.0035
1.00609
1.00759
1.00597
1.0038
1.00691
1.00977
1.00581
1.01013
1.01637
1.0159
1.00977
1.0149
1.01932
1.01215
0.961589
0.978469
0.972382
0.958973
0
0
0
0.996972
0.998988
0.996392
1.00009
1.00052
1.00418
1.00773
1.00508
1.00388
1.00722
1.00806
1.00414
1.00556
1.0106
1.01352
1.00936
1.0143
1.01943
1.012
1.00765
1.02262
0.967478
0.974913
0.969879
0.963236
0.970717
0
0
0.990961
0.992572
0
0
0
0
0
0
0
1.00481
1.00747
0
0
0
0
0
0
0
1.01482
1.00978
1.01647
0.977689
0.953839
0.965032
0.983718
0.968654
0
0
0.986475
0.982933
0.99325
0.993797
0.986779
0
0
0
0
0
1.00059
1.00534
1.00555
1.00182
0
0
0
0
0
1.02901
1.0045
0.964472
0.966977
0.969562
0.969653
0.969146
0.976515
0.985331
0.989371
0.989071
0.989104
0.987754
0.993754
0.994295
0.99389
0.995289
1.00081
1.00148
1.00028
1.00451
1.00668
1.00177
1.00409
1.01437
1.01002
1.00362
1.0192
1.01199
1.0119
0.958419
0.984727
0.971799
0.957447
0.973089
0.982218
0.980327
0.988058
0.992793
0.987127
0.988006
0.994347
0.992991
0.995489
0.996169
0.997026
1.00262
1.0053
1.00013
1.0016
1.01062
1.0069
1.00093
1.01281
1.01989
1.00768
0.996524
1.03471

VECTORS velocity double
-0.000504997 0.000501698 0
-0.0055342 0.00238722 0
-0.008403 -2.09547e-05 0
-0.00803596 -0.000540682 0
-0.0070775 -0.000127056 0
-0.00772721 0.000470881 0
-0.00830031 -0.000120957 0
-0.00758543 -0.000405719 0
-0.00733077 0.000167008 0
-0.00799658 0.000236787 0
-0.00802565 -0.000222588 0
-0.00735822 -0.00028259 0
-0.00730421 0.00021589 0
-0.00687899 -0.000509425 0
-0.00610946 -8.31272e-06 0
-0.00644346 0.000209571 0
-0.0064999 -0.000145739 0
-0.00616624 -5.69439e-05 0
-0.0063474 0.000202386 0
-0.00659222 -1.01293e-05 0
-0.00625132 -0.000200112 0
-0.00622941 0.000319905 0
-0.00632739 -0.000300042 0
-0.00421775 -0.00105941 0
-0.00227489 -0.000194457 0
-0.0017123 -1.62989e-05 0
-0.00101189 -0.000544136 0
-4.31602e-05 4.65119e-06 0
-0.00246238 0.00543372 0
-0.00727038 0.00718725 0
-0.00708353 0.000790649 0
-0.00745664 -0.000609785 0
-0.00841021 -3.78144e-05 0
-0.00776299 0.00052541 0
-0.00718867 -6.40562e-05 0
-0.00790403 -0.000354587 0
-0.00815863 0.000211309 0
-0.00749259 0.000284981 0
-0.00746387 -0.000229855 0
-0.00813079 -0.000348249 0
-0.00735818 -0.000827649 0
-0.00674463 -0.000726941 0
-0.00683285 -0.000442159 0
-0.00628734 0.000217921 0
-0.0062313 -0.000139043 0
-0.00656442 -8.49437e-05 0
-0.00638419 0.000175985 0
-0.00613821 -5.82411e-05 0
-0.00648037 -0.000178902 0
-0.00650113 0.000146449 0
-0.0056365 -0.00197459 0
-0.00501538 -0.00281105 0
-0.00423114 -0.00229123 0
-0.00226878 -0.00120844 0
-0.0014677 -0.00153406 0
-0.000551011 -0.000992266 0
-0.000673683 0.00959852 0
-0.00125953 0.00585497 0
0 0 0
0 0 0
0 0 0
0 0 0
0 0 0
0 0 0
0 0 0
0 0 0
0 0 0
0 0 0
-0.000827914 -0.00097444 0
-0.000795682 -0.00117009 0
5.61997e-05 -0.000637427 0
0 0 0
0 0 0
0 0 0
0 0 0
0 0 0
0 0 0
0 0 0
-0.000767717 -0.00121299 0
-0.00245478 -0.00180134 0
-0.0029758 -0.00390208 0
-0.0016679 -0.00208431 0
-0.00108909 -0.00142434 0
-0.000330452 -0.0021746 0
0.00184118 0.00838379 0
0.00194128 0.00714069 0
0 0 0
0 0 0
0 0 0
0 0 0
0 0 0
0 0 0
0 0 0
0 0 0
0 0 0
0 0 0
0 0 0
-0.000657458 -0.00158426 0
-0.000640953 -0.00116061 0
0 0 0
0 0 0
0 0 0
0 0 0
0 0 0
0 0 0
0 0 0
0 0 0
-0.00166369 -0.00032719 0
-0.00391195 -0.00280367 0
-0.00356593 -0.00377358 0
-0.000961868 -0.00394192 0
0.000640685 -0.00198221 0
0.000275021 0.00495706 0
0.000294291 0.0105017 0
0 0 0
0 0 0
0 0 0
-0.000109819 2.01447e-05 0
-0.00181167 0.00114369 0
-0.00207464 -0.000906786 0
-0.0012606 0.000254761 0
-0.00215935 0.000345015 0
-0.00238576 -0.000206038 0
-0.00187967 -0.000122992 0
-0.00203203 0.000117926 0
-0.00242381 -0.000850305 0
-0.00317438 -0.00117711 0
-0.00350901 -0.000381594 0
-0.00330806 3.94928e-06 0
-0.00396935 0.000499751 0
-0.00481937 0.000110481 0
-0.00426116 -0.000525796 0
-0.00331751 -0.000103076 0
-0.00417541 0.00082196 0
-0.00555197 0.000559241 0
-0.00394857 -0.000672195 0
-0.00229735 -0.000868421 0
-0.00261763 -0.0051203 0
-0.00256396 -0.00640277 0
-0.000817226 -0.00196484 0
-0.00243607 0.0081774 0
-0.00246282 0.00733718 0
0 0 0
0 0 0
0 0 0
-0.00101085 0.0018796 0
-0.000532457 0.000784102 0
-0.00101006 0.000255623 0
-0.00285478 0.000316599 0
-0.001965 0.000453971 0
-0.00173187 -0.000198291 0
-0.00224185 -9.64741e-05 0
-0.00208787 0.000178483 0
-0.00210702 -0.000195563 0
-0.00291074 -0.000184074 0
-0.00353923 -0.00018947 0
-0.00439129 0.00082474 0
-0.00434196 0.00058628 0
-0.00349521 0.000121709 0
-0.004049 -0.000556119 0
-0.00499811 -9.76617e-05 0
-0.00413401 0.000654239 0
-0.00276338 0.000282958 0
-0.00373994 -0.00104073 0
-0.00252123 -0.00464401 0
0.00103489 -0.00529571 0
-0.000926138 -0.0037431 0
-0.00154559 -0.00563843 0
0.000578069 0.0110835 0
0.000404522 0.00425624 0
-0.000156079 0.000116565 0
0 0 0
0 0 0
0.00111195 0.00172171 0
0.000554434 0.000444502 0
-0.000452817 0.00193796 0
0 0 0
0 0 0
0 0 0
0 0 0
0 0 0
0 0 0
0 0 0
-0.000928773 0.00113478 0
-0.000897561 0.000300836 0
0 0 0
0 0 0
0 0 0
0 0 0
0 0 0
0 0 0
0 0 0
-0.00166433 -0.00667027 0
-0.00298732 -0.00500059 0
2.66689e-05 -0.00378702 0
0.0015972 -0.00554173 0
0.00282578 0.00610606 0
0.00357463 0.00919264 0
0.000517315 0.000861638 0
-0.000593161 -0.000631569 0
0 0 0
0 0 0
0.000916123 0.00236874 0
0.00112874 0.00176143 0
0 0 0
0 0 0
0 0 0
0 0 0
0 0 0
0 0 0
-0.00088212 0.00104988 0
-0.000537238 0.000692316 0
0.000385066 -0.00030989 0
0 0 0
0 0 0
0 0 0
0 0 0
0 0 0
0 0 0
-0.00139947 0.00136627 0
-0.00376601 -0.00248339 0
-0.00822878 -0.0036239 0
-0.00592745 -0.013597 0
0.000368023 -0.00275037 0
-0.00150214 0.00378485 0
0.0010494 0.00911244 0
0.00505461 0.00141048 0
0.00208454 0.00114389 0
0 0 0
0 0 0
0.000887698 0.00131275 0
0.00109508 0.00163835 0
-0.00424621 0.00379713 0
-0.0076078 -0.00020235 0
-0.00564234 -0.00104005 0
-0.00562858 0.000936123 0
-0.00768723 0.000425268 0
-0.00672782 -0.00088305 0
-0.00462044 0.00128483 0
-0.00619823 0.000762134 0
-0.00673621 -0.000781242 0
-0.00534424 0.00011212 0
-0.00712634 0.00115589 0
-0.00811948 -0.000531333 0
-0.00571673 -0.00106973 0
-0.00573612 0.00123094 0
-0.00891678 0.00124962 0
-0.00642576 -0.000328285 0
-0.00399989 0.00202712 0
-0.00966021 -0.000103859 0
-0.0127451 -0.0167237 0
-0.00522513 -0.00968508 0
-0.0012644 0.00808051 0
-0.000253096 0.00039936 0
0.00116633 0.00167139 0
-9.72681e-05 0.0053738 0
0 0 0
0 0 0
0 0 0
-0.00237381 0.00640326 0
-0.00502603 0.00850085 0
-0.0053655 0.000206768 0
-0.00732705 -0.000911443 0
-0.00734305 0.000925568 0
-0.00528331 0.000390315 0
-0.00624287 -0.00096737 0
-0.00746946 0.000170605 0
-0.00513402 0.00103806 0
-0.0053977 0.000253875 0
-0.00802982 0.000350546 0
-0.00649751 0.00122846 0
-0.00549947 -0.000540632 0
-0.00790837 -0.00106768 0
-0.00788249 0.00107839 0
-0.00470818 0.00107982 0
-0.00579309 -0.00200146 0
-0.00703011 0.00169661 0
-0.00161301 -0.00190771 0
-0.00324688 -0.00801452 0
-0.00382548 -0.0234766 0
0.00173688 0.00755465 0
-0.00629416 0.00628238 0
-0.0141992 0.00177616 0
-0.00788359 0.00148592 0
-0.00104213 -0.00165097 0
0 0 0
0 0 0
0.00172961 0.00838058 0
0.00181209 0.00870337 0
0 0 0
0 0 0
0 0 0
0 0 0
0 0 0
0 0 0
0 0 0
0.00049276 0.00119071 0
0.000456552 0.000900963 0
0 0 0
0 0 0
0 0 0
0 0 0
0 0 0
0 0 0
0 0 0
-0.00136885 -0.00246539 0
0.00614549 -0.014812 0
0.00800649 -0.0173746 0
-0.00199629 0.00782026 0
-0.0118844 0.0238181 0
-0.0117209 -0.00291003 0
-0.00502357 -0.0067496 0
-0.00275672 -0.00645122 0
0 0 0
0 0 0
-0.000261851 0.00552366 0
0.00374384 0.00642456 0
0.00412272 0.0048109 0
0.000765315 0.000165092 0
0.000172598 0.000183059 0
0 0 0
0 0 0
0 0 0
0 0 0
0 0 0
0.000472885 0.00159716 0
0.000177919 0.000654823 0
-0.000549522 -1.29476e-06 0
-0.00030986 -0.000181234 0
0 0 0
0 0 0
0 0 0
0 0 0
0 0 0
-0.000790484 -0.0287837 0
-0.000449278 -0.0058891 0
-0.00634961 0.020089 0
-0.00933137 0.0188121 0
-0.000864899 -0.0079591 0
0.00497544 -0.0105262 0
-0.00152488 -0.00114372 0
-0.00987312 -0.000584014 0
-0.00507278 -0.00256611 0
-0.000666021 0.00414998 0
-0.00295783 0.00668288 0
-0.000391031 0.00271877 0
0.00462591 0.00101095 0
0.00187394 0.001807 0
0.00153256 -0.00106544 0
0.00471018 -0.000978219 0
0.0037842 0.00161783 0
0.000734965 0.000424772 0
0.00284687 -0.0016106 0
0.00589903 0.0013331 0
0.00266864 0.00310629 0
0.00116644 -0.00120806 0
0.00650773 -0.00265392 0
0.00627407 0.00241199 0
-6.2458e-05 0.00154223 0
0.00321516 -0.00383939 0
0.00914729 1.85258e-05 0
0.00250666 0.00429901 0
-0.0110536 -0.0174417 0
-0.00808681 -0.0184849 0
0.023294 0.0151346 0
0.05035 0.00333907 0
0.0490246 -0.00405338 0
0.0353605 -0.00511599 0
0.0341475 0.00403079 0
0.0386959 -0.000679897 0
0.0338941 -0.00266282 0
0.0316937 0.00124938 0
0.0396226 0.0040093 0
0.0421822 -0.00214523 0
0.0405225 0.000860742 0
0.0438675 0.00147674 0
0.044381 -0.00114181 0
0.0412034 -0.000987692 0
0.0421296 0.00163859 0
0.0451789 0.000346837 0
0.0430674 -0.00174421 0
0.0409221 0.000350162 0
0.045152 0.00250078 0
0.0473826 -0.00114626 0
0.0418 -0.00251468 0
0.0417247 0.00253968 0
0.048062 0.001585 0
0.0447846 -0.00387683 0
0.0388502 9.92511e-05 0
0.0454933 0.00432427 0
0.0489327 -0.002079 0
0.0236136 -0.0152945 0

