# vtk DataFile Version 4.0
SiwiRVisFile
ASCII
DATASET STRUCTURED_POINTS
DIMENSIONS 28 14 1
ORIGIN 0 0 0
SPACING 1 1 1
POINT_DATA 392

SCALARS flags double 1
LOOKUP_TABLE default
1
1
1
1
1
1
1
1
1
1
1
1
1
1
1
1
1
1
1
1
1
1
1
1
1
1
1
1
1
1
1
1
1
1
1
1
1
1
1
1
1
1
1
1
1
1
1
1
1
1
1
1
1
1
1
1
1
1
1
1
1
1
1
1
1
1
1
1
1
1
1
1
1
1
1
1
1
1
1
1
1
1
1
1
1
1
1
1
1
1
1
1
1
1
1
1
1
1
1
1
1
1
1
1
1
1
1
1
1
1
1
1
1
1
1
1
1
1
1
1
1
1
1
1
1
1
1
1
1
1
1
1
1
1
1
1
1
1
1
1
1
1
1
1
1
1
1
1
1
1
1
1
1
1
1
1
1
1
1
1
1
1
1
1
1
1
1
1
1
1
1
1
1
1
1
1
1
1
1
1
1
1
1
1
1
1
1
1
1
1
1
1
1
1
1
1
1
1
1
1
1
1
1
1
1
1
1
1
1
1
1
1
1
1
1
1
1
1
1
1
1
1
1
1
1
1
1
1
1
1
1
1
1
1
1
1
1
1
1
1
1
1
1
1
1
1
1
1
1
1
1
1
1
1
1
1
1
1
1
1
1
1
1
1
1
1
1
1
1
1
1
1
1
1
1
1
1
1
1
1
1
1
1
1
1
1
1
1
1
1
1
1
1
1
1
1
1
1
1
1
1
1
1
1
1
1
1
1
1
1
1
1
1
1
1
1
1
1
1
1
1
1
1
1
1
1
1
1
1
1
1
1
1
1
1
1
1
1
1
1
1
1
1
1
1
1
1
1
1
1
1
1
1
1
1
1
1
1
1
1
1
1
1
1
1
1
1
1
1
1
1
1
1
1
1
1
1
1
1
1
1
1
1
1
1
1
1
1
1
1
1
1

SCALARS density double 1
LOOKUP_TABLE default
0.987837
0.980741
0.979945
0.998752
0.998193
0.998091
0.998056
1.00046
1.00123
1.00056
1.00299
1.00558
1.00504
1.00505
1.00609
1.00603
1.00589
1.00715
1.00827
1.00903
1.0077
1.01236
1.01751
1.01487
1.01086
1.01578
1.01794
1.01194
0.98499
0.978596
0.982713
0.999477
0.995625
0.998557
0.999981
0.999238
1.00016
1.00209
1.00317
1.00414
1.00565
1.00586
1.00549
1.00543
1.00654
1.00761
1.00753
1.0087
1.00858
1.01253
1.01632
1.01494
1.01259
1.01485
1.01637
1.01367
0.976575
0.987045
0
0
0
0
0
0
0
0
0
0
1.00563
1.00562
1.00535
0
0
0
0
0
0
0
1.01031
1.01375
1.01927
1.01328
1.01036
1.01775
0.96728
0.969728
0
0
0
0
0
0
0
0
0
0
0
1.0057
1.00553
0
0
0
0
0
0
0
0
1.01449
1.01467
1.01475
1.01438
1.01424
0.975275
0.961985
0
0
0
1.00497
0.999898
1.00525
1.00813
1.00488
1.00456
1.00778
1.00848
1.00463
1.00506
1.00918
1.00724
1.00435
1.00936
1.01207
1.00757
1.01142
1.01829
1.01538
1.00937
1.01605
1.0194
1.01114
0.967623
0.970605
0
0
0
0.999851
1.00526
1.00733
1.00279
1.00486
1.00955
1.00598
1.00432
1.00793
1.00797
1.0047
1.00623
1.00942
1.00794
1.00743
1.01133
1.01471
1.01259
1.01418
1.01626
1.01386
1.01308
1.01678
0.963582
0.977936
0.972023
0
0
1.00485
1.00867
1.00158
0
0
0
0
0
0
0
1.00505
1.00647
0
0
0
0
0
0
0
1.02041
1.01332
1.00939
1.01781
0.974026
0.964259
0.966783
0.974568
0
0
1.00005
1.00125
0
0
0
0
0
0
1.00653
1.00688
1.00508
0
0
0
0
0
0
1.01408
1.01082
1.01619
1.01872
1.00993
0.973716
0.961013
0.9668
0.978223
0
0
0.996096
1.00292
1.00182
0.990927
0.999168
1.00535
1.00392
1.0035
1.00609
1.00759
1.00597
1.0038
1.00691
1.00977
1.00581
1.01013
1.01637
1.0159
1.00977
1.0149
1.01932
1.01215
0.961589
0.978469
0.972382
0.958973
0
0
0
0.996972
0.998988
0.996392
1.00009
1.00052
1.00418
1.00773
1.00508
1.00388
1.00722
1.00806
1.00414
1.00556
1.0106
1.01352
1.00936
1.0143
1.01943
1.012
1.00765
1.02262
0.967478
0.974913
0.969879
0.963236
0.970717
0
0
0.990961
0.992572
0
0
0
0
0
0
0
1.00481
1.00747
0
0
0
0
0
0
0
1.01482
1.00978
1.01647
0.97769
0.953839
0.965032
0.983718
0.968654
0
0
0.986475
0.982933
0.99325
0.993797
0.986779
0
0
0
0
0
1.00059
1.00534
1.00555
1.00182
0
0
0
0
0
1.02901
1.0045
0.964472
0.966977
0.969562
0.969653
0.969146
0.976515
0.985331
0.989371
0.989071
0.989104
0.987754
0.993754
0.994295
0.99389
0.995289
1.00081
1.00148
1.00028
1.00451
1.00668
1.00177
1.00409
1.01437
1.01002
1.00362
1.0192
1.01199
1.0119
0.958419
0.984727
0.971799
0.957447
0.973089
0.982218
0.980327
0.988058
0.992793
0.987127
0.988006
0.994347
0.992991
0.995489
0.996169
0.997026
1.00262
1.0053
1.00013
1.0016
1.01062
1.0069
1.00093
1.01281
1.01989
1.00768
0.996524
1.03471

VECTORS velocity double
-0.000505605 0.000502724 0
-0.00553385 0.00238874 0
-0.00840309 -1.79034e-05 0
-0.00803578 -0.000535977 0
-0.00707766 -0.000121741 0
-0.00772716 0.000476641 0
-0.00830025 -0.000114571 0
-0.0075854 -0.00039887 0
-0.00733084 0.00017389 0
-0.00799655 0.000243667 0
-0.00802557 -0.00021561 0
-0.00735827 -0.000275781 0
-0.00730418 0.000222237 0
-0.00687896 -0.000503265 0
-0.00610952 -2.42475e-06 0
-0.00644344 0.000215179 0
-0.0064998 -0.000140321 0
-0.00616633 -5.25256e-05 0
-0.00634737 0.000205674 0
-0.00659224 -7.89842e-06 0
-0.00625131 -0.0001989 0
-0.00622945 0.000320118 0
-0.00632736 -0.000300568 0
-0.00421783 -0.00106064 0
-0.00227482 -0.000196185 0
-0.00171235 -1.84833e-05 0
-0.00101187 -0.000546552 0
-4.31256e-05 2.35836e-06 0
-0.00246275 0.00543273 0
-0.00727005 0.00718559 0
-0.00708384 0.000787516 0
-0.00745642 -0.000614196 0
-0.00841025 -4.30577e-05 0
-0.00776288 0.000519371 0
-0.00718879 -7.04172e-05 0
-0.00790399 -0.000361183 0
-0.00815854 0.000204326 0
-0.00749262 0.000277909 0
-0.0074639 -0.000236701 0
-0.00813074 -0.000354861 0
-0.00735823 -0.000833931 0
-0.0067446 -0.000732852 0
-0.0068328 -0.000447879 0
-0.0062874 0.000212266 0
-0.0062312 -0.000144368 0
-0.00656447 -8.9324e-05 0
-0.00638416 0.000172635 0
-0.00613825 -6.04702e-05 0
-0.00648037 -0.000180081 0
-0.00650116 0.000146269 0
-0.00563649 -0.00197405 0
-0.00501541 -0.0028099 0
-0.0042311 -0.00228951 0
-0.00226882 -0.00120628 0
-0.00146765 -0.00153172 0
-0.000551108 -0.000989917 0
-0.000674174 0.00959951 0
-0.00125913 0.00585654 0
0 0 0
0 0 0
0 0 0
0 0 0
0 0 0
0 0 0
0 0 0
0 0 0
0 0 0
0 0 0
-0.000827823 -0.000968441 0
-0.000795684 -0.00116451 0
5.61725e-05 -0.000632113 0
0 0 0
0 0 0
0 0 0
0 0 0
0 0 0
0 0 0
0 0 0
-0.000767639 -0.00121349 0
-0.00245481 -0.00180242 0
-0.00297575 -0.00390376 0
-0.00166801 -0.00208646 0
-0.00108904 -0.0014267 0
-0.000330412 -0.00217694 0
0.00184166 0.00838292 0
0.00194077 0.00713958 0
0 0 0
0 0 0
0 0 0
0 0 0
0 0 0
0 0 0
0 0 0
0 0 0
0 0 0
0 0 0
0 0 0
-0.000657601 -0.00158929 0
-0.000640751 -0.00116525 0
0 0 0
0 0 0
0 0 0
0 0 0
0 0 0
0 0 0
0 0 0
0 0 0
-0.00166379 -0.000326127 0
-0.00391183 -0.00280208 0
-0.00356604 -0.00377146 0
-0.000961737 -0.00393955 0
0.000640494 -0.0019799 0
0.00027452 0.00495759 0
0.000294832 0.0105022 0
0 0 0
0 0 0
0 0 0
-0.000109135 2.03263e-05 0
-0.00181235 0.00114395 0
-0.00207401 -0.000906059 0
-0.00126117 0.00025611 0
-0.00215883 0.000347353 0
-0.00238617 -0.000202884 0
-0.00187933 -0.000119223 0
-0.00203227 0.000122227 0
-0.00242355 -0.000845701 0
-0.00317462 -0.00117317 0
-0.00350883 -0.000378773 0
-0.00330826 6.08202e-06 0
-0.00396925 0.000501914 0
-0.00481932 0.000112837 0
-0.00426123 -0.000523921 0
-0.00331741 -0.000101809 0
-0.00417558 0.000822359 0
-0.00555178 0.000558891 0
-0.00394877 -0.000673263 0
-0.00229721 -0.000870011 0
-0.00261774 -0.00512234 0
-0.00256392 -0.00640495 0
-0.000817206 -0.00196724 0
-0.00243632 0.00817723 0
-0.00246259 0.0073373 0
0 0 0
0 0 0
0 0 0
-0.00101019 0.00187944 0
-0.000533103 0.000783828 0
-0.00100943 0.000255013 0
-0.00285536 0.000315258 0
-0.00196444 0.00045157 0
-0.00173236 -0.000201399 0
-0.00224144 -0.000100198 0
-0.00208815 0.000174175 0
-0.00210683 -0.000199987 0
-0.00291097 -0.000187624 0
-0.00353903 -0.000191913 0
-0.00439141 0.000822739 0
-0.00434188 0.000584049 0
-0.00349517 0.000119344 0
-0.0040491 -0.000557892 0
-0.00499797 -9.8918e-05 0
-0.00413416 0.000653797 0
-0.00276327 0.000283285 0
-0.00374006 -0.00103971 0
-0.00252114 -0.00464242 0
0.00103484 -0.00529374 0
-0.000925947 -0.00374106 0
-0.001546 -0.00563608 0
0.000578163 0.0110833 0
0.000404432 0.0042557 0
-0.000156076 0.000115015 0
0 0 0
0 0 0
0.00111257 0.00172179 0
0.000553815 0.000444725 0
-0.000452208 0.00193838 0
0 0 0
0 0 0
0 0 0
0 0 0
0 0 0
0 0 0
0 0 0
-0.000928284 0.00113686 0
-0.000897914 0.000302528 0
0 0 0
0 0 0
0 0 0
0 0 0
0 0 0
0 0 0
0 0 0
-0.00166403 -0.00667177 0
-0.00298767 -0.00500246 0
2.67604e-05 -0.00378922 0
0.00159735 -0.00554386 0
0.00282614 0.00610671 0
0.00357425 0.0091935 0
0.000517788 0.000863361 0
-0.00059361 -0.00062866 0
0 0 0
0 0 0
0.000915428 0.00236859 0
0.00112949 0.00176117 0
0 0 0
0 0 0
0 0 0
0 0 0
0 0 0
0 0 0
-0.000882438 0.00104811 0
-0.000536978 0.000690634 0
0.000384776 -0.000311001 0
0 0 0
0 0 0
0 0 0
0 0 0
0 0 0
0 0 0
-0.00139977 0.00136761 0
-0.00376572 -0.00248186 0
-0.00822907 -0.00362214 0
-0.00592705 -0.0135949 0
0.000367644 -0.00274822 0
-0.00150143 0.0037839 0
0.00104881 0.00911089 0
0.00505529 0.00140831 0
0.00208384 0.00114091 0
0 0 0
0 0 0
0.000886929 0.00131289 0
0.00109578 0.00163855 0
-0.00424692 0.00379748 0
-0.00760713 -0.000201258 0
-0.00564288 -0.0010384 0
-0.00562811 0.000938049 0
-0.00768767 0.000426905 0
-0.00672736 -0.00088113 0
-0.00462081 0.00128651 0
-0.00619791 0.000763423 0
-0.00673644 -0.000780703 0
-0.00534407 0.000111756 0
-0.00712648 0.00115465 0
-0.00811954 -0.00053273 0
-0.0057166 -0.00107107 0
-0.00573627 0.00122949 0
-0.00891658 0.00124822 0
-0.00642599 -0.00032974 0
-0.0039996 0.00202541 0
-0.00966055 -0.000105586 0
-0.0127451 -0.0167251 0
-0.00522494 -0.00968731 0
-0.00126395 0.00808173 0
-0.000253872 0.000401434 0
0.00116742 0.00167413 0
-9.80285e-05 0.00537747 0
0 0 0
0 0 0
0 0 0
-0.00237262 0.00640318 0
-0.00502691 0.00850056 0
-0.0053649 0.000205789 0
-0.00732751 -0.000912902 0
-0.00734251 0.000923476 0
-0.00528385 0.000388571 0
-0.00624243 -0.000969154 0
-0.00746978 0.000169005 0
-0.00513376 0.00103693 0
-0.0053979 0.000253635 0
-0.00802968 0.000351127 0
-0.00649765 0.00122987 0
-0.00549939 -0.000539279 0
-0.00790828 -0.00106648 0
-0.00788272 0.00108 0
-0.00470795 0.00108134 0
-0.00579318 -0.00200009 0
-0.00703025 0.00169851 0
-0.00161286 -0.00190588 0
-0.0032465 -0.00801324 0
-0.00382629 -0.0234749 0
0.00173954 0.00755286 0
-0.00629607 0.00628028 0
-0.0141984 0.00177295 0
-0.00788399 0.00148162 0
-0.00104141 -0.00165581 0
0 0 0
0 0 0
0.00173063 0.00838002 0
0.00181132 0.00870298 0
0 0 0
0 0 0
0 0 0
0 0 0
0 0 0
0 0 0
0 0 0
0.000492488 0.00119096 0
0.000457161 0.000899807 0
0 0 0
0 0 0
0 0 0
0 0 0
0 0 0
0 0 0
0 0 0
-0.00136995 -0.00246737 0
0.0061455 -0.0148134 0
0.00800709 -0.0173757 0
-0.00199459 0.00782262 0
-0.0118851 0.0238207 0
-0.0117201 -0.00290571 0
-0.00502379 -0.00674573 0
-0.00275586 -0.00644796 0
0 0 0
0 0 0
-0.000260449 0.00552537 0
0.0037431 0.00642614 0
0.00412372 0.00481282 0
0.000764262 0.0001671 0
0.000174073 0.00018478 0
0 0 0
0 0 0
0 0 0
0 0 0
0 0 0
0.000473627 0.00159911 0
0.000177961 0.000657576 0
-0.00054983 1.56306e-06 0
-0.000309042 -0.000179045 0
0 0 0
0 0 0
0 0 0
0 0 0
0 0 0
-0.000789201 -0.0287822 0
-0.000450092 -0.00588771 0
-0.00634526 0.0200857 0
-0.00933234 0.0188073 0
-0.000864615 -0.00796378 0
0.00497598 -0.0105292 0
-0.00152553 -0.00114616 0
-0.00987283 -0.000586052 0
-0.00507367 -0.00257042 0
-0.00066506 0.00414735 0
-0.00295852 0.00668021 0
-0.00039024 0.00271642 0
0.00462548 0.00100848 0
0.00187418 0.00180521 0
0.00153231 -0.00106735 0
0.00471014 -0.000980287 0
0.00378435 0.00161571 0
0.000734705 0.000422445 0
0.00284678 -0.00161345 0
0.00589914 0.0013306 0
0.00266894 0.00310333 0
0.00116646 -0.00121101 0
0.00650772 -0.00265609 0
0.00627431 0.00241074 0
-6.30425e-05 0.00153991 0
0.00321519 -0.00384249 0
0.0091479 1.6735e-05 0
0.00250595 0.00429653 0
-0.0110532 -0.0174433 0
-0.00808644 -0.0184863 0
0.023295 0.0151416 0
0.050351 0.00334471 0
0.0490245 -0.00404977 0
0.0353598 -0.00511354 0
0.0341481 0.00403437 0
0.0386956 -0.000677388 0
0.0338944 -0.00265949 0
0.0316933 0.00125227 0
0.0396231 0.00401274 0
0.0421819 -0.00214283 0
0.0405227 0.000863721 0
0.0438674 0.00147905 0
0.0443809 -0.00113989 0
0.0412033 -0.000985567 0
0.0421297 0.00164108 0
0.0451788 0.00034912 0
0.0430673 -0.001742 0
0.040922 0.000352805 0
0.0451524 0.00250421 0
0.0473824 -0.00114353 0
0.0418 -0.00251259 0
0.0417247 0.00254179 0
0.0480623 0.00158759 0
0.0447843 -0.00387477 0
0.0388502 0.000101247 0
0.0454938 0.00432712 0
0.0489328 -0.0020775 0
0.02361 -0.0152926 0

