# vtk DataFile Version 4.0
SiwiRVisFile
ASCII
DATASET STRUCTURED_POINTS
DIMENSIONS 28 14 1
ORIGIN 0 0 0
SPACING 1 1 1
POINT_DATA 392

SCALARS flags double 1
LOOKUP_TABLE default
1
1
1
1
1
1
1
1
1
1
1
1
1
1
1
1
1
1
1
1
1
1
1
1
1
1
1
1
1
1
1
1
1
1
1
1
1
1
1
1
1
1
1
1
1
1
1
1
1
1
1
1
1
1
1
1
1
1
1
1
1
1
1
1
1
1
1
1
1
1
1
1
1
1
1
1
1
1
1
1
1
1
1
1
1
1
1
1
1
1
1
1
1
1
1
1
1
1
1
1
1
1
1
1
1
1
1
1
1
1
1
1
1
1
1
1
1
1
1
1
1
1
1
1
1
1
1
1
1
1
1
1
1
1
1
1
1
1
1
1
1
1
1
1
1
1
1
1
1
1
1
1
1
1
1
1
1
1
1
1
1
1
1
1
1
1
1
1
1
1
1
1
1
1
1
1
1
1
1
1
1
1
1
1
1
1
1
1
1
1
1
1
1
1
1
1
1
1
1
1
1
1
1
1
1
1
1
1
1
1
1
1
1
1
1
1
1
1
1
1
1
1
1
1
1
1
1
1
1
1
1
1
1
1
1
1
1
1
1
1
1
1
1
1
1
1
1
1
1
1
1
1
1
1
1
1
1
1
1
1
1
1
1
1
1
1
1
1
1
1
1
1
1
1
1
1
1
1
1
1
1
1
1
1
1
1
1
1
1
1
1
1
1
1
1
1
1
1
1
1
1
1
1
1
1
1
1
1
1
1
1
1
1
1
1
1
1
1
1
1
1
1
1
1
1
1
1
1
1
1
1
1
1
1
1
1
1
1
1
1
1
1
1
1
1
1
1
1
1
1
1
1
1
1
1
1
1
1
1
1
1
1
1
1
1
1
1
1
1
1
1
1
1
1
1
1
1
1
1
1
1
1
1
1
1
1
1
1
1
1
1
1

SCALARS density double 1
LOOKUP_TABLE default
0.987837
0.980741
0.979945
0.998752
0.998193
0.998091
0.998056
1.00046
1.00123
1.00056
1.00299
1.00558
1.00504
1.00505
1.00609
1.00603
1.00589
1.00715
1.00827
1.00903
1.0077
1.01236
1.01751
1.01487
1.01086
1.01578
1.01794
1.01194
0.98499
0.978596
0.982713
0.999478
0.995625
0.998557
0.999981
0.999238
1.00016
1.00209
1.00317
1.00414
1.00565
1.00586
1.00549
1.00543
1.00654
1.00761
1.00753
1.0087
1.00858
1.01253
1.01632
1.01494
1.01259
1.01485
1.01637
1.01367
0.976575
0.987045
0
0
0
0
0
0
0
0
0
0
1.00563
1.00562
1.00535
0
0
0
0
0
0
0
1.01031
1.01375
1.01927
1.01328
1.01036
1.01775
0.96728
0.969728
0
0
0
0
0
0
0
0
0
0
0
1.0057
1.00553
0
0
0
0
0
0
0
0
1.01449
1.01467
1.01475
1.01438
1.01424
0.975275
0.961985
0
0
0
1.00497
0.999898
1.00525
1.00813
1.00488
1.00456
1.00778
1.00848
1.00463
1.00506
1.00918
1.00724
1.00435
1.00936
1.01207
1.00757
1.01142
1.01829
1.01538
1.00937
1.01605
1.0194
1.01114
0.967623
0.970605
0
0
0
0.999851
1.00526
1.00733
1.00279
1.00486
1.00955
1.00598
1.00432
1.00793
1.00797
1.0047
1.00623
1.00942
1.00794
1.00743
1.01133
1.01471
1.01259
1.01418
1.01626
1.01386
1.01308
1.01678
0.963582
0.977936
0.972023
0
0
1.00485
1.00867
1.00158
0
0
0
0
0
0
0
1.00505
1.00647
0
0
0
0
0
0
0
1.02041
1.01332
1.00939
1.01781
0.974026
0.964259
0.966783
0.974568
0
0
1.00005
1.00125
0
0
0
0
0
0
1.00653
1.00688
1.00508
0
0
0
0
0
0
1.01408
1.01082
1.01619
1.01872
1.00993
0.973716
0.961013
0.9668
0.978223
0
0
0.996096
1.00292
1.00182
0.990927
0.999168
1.00535
1.00392
1.0035
1.00609
1.00759
1.00597
1.0038
1.00691
1.00977
1.00581
1.01013
1.01637
1.0159
1.00977
1.0149
1.01932
1.01215
0.961589
0.978469
0.972382
0.958973
0
0
0
0.996972
0.998988
0.996392
1.00009
1.00052
1.00418
1.00773
1.00508
1.00388
1.00722
1.00806
1.00414
1.00556
1.0106
1.01352
1.00936
1.0143
1.01943
1.012
1.00765
1.02262
0.967478
0.974913
0.969879
0.963236
0.970717
0
0
0.990961
0.992572
0
0
0
0
0
0
0
1.00481
1.00747
0
0
0
0
0
0
0
1.01482
1.00978
1.01647
0.97769
0.953839
0.965032
0.983718
0.968654
0
0
0.986475
0.982933
0.99325
0.993797
0.986779
0
0
0
0
0
1.00059
1.00534
1.00555
1.00182
0
0
0
0
0
1.02901
1.0045
0.964472
0.966977
0.969562
0.969653
0.969146
0.976515
0.985331
0.989371
0.989071
0.989104
0.987753
0.993754
0.994295
0.99389
0.995289
1.00081
1.00148
1.00028
1.00451
1.00668
1.00177
1.00409
1.01437
1.01002
1.00362
1.0192
1.01199
1.0119
0.958419
0.984727
0.971799
0.957447
0.973089
0.982218
0.980327
0.988058
0.992793
0.987127
0.988006
0.994347
0.992991
0.995489
0.996169
0.997026
1.00262
1.0053
1.00013
1.0016
1.01062
1.0069
1.00093
1.01281
1.01989
1.00768
0.996524
1.03471

VECTORS velocity double
-0.000506335 0.000504523 0
-0.00553347 0.00239096 0
-0.00840311 -1.3871e-05 0
-0.0080356 -0.000530149 0
-0.00707783 -0.000115552 0
-0.00772713 0.000482924 0
-0.00830016 -0.000107943 0
-0.0075854 -0.000392104 0
-0.0073309 0.000180409 0
-0.00799652 0.00024993 0
-0.00802549 -0.000209492 0
-0.00735832 -0.000270019 0
-0.00730415 0.000227423 0
-0.00687892 -0.000498412 0
-0.00610958 1.94375e-06 0
-0.00644343 0.000218982 0
-0.00649974 -0.000137017 0
-0.00616638 -5.01237e-05 0
-0.00634734 0.000207147 0
-0.00659226 -7.29304e-06 0
-0.0062513 -0.000199092 0
-0.00622948 0.000319193 0
-0.00632736 -0.000302087 0
-0.00421792 -0.00106278 0
-0.00227473 -0.000198656 0
-0.00171242 -2.13146e-05 0
-0.00101185 -0.000549588 0
-4.309e-05 -5.24962e-07 0
-0.00246305 0.00543097 0
-0.00726974 0.00718308 0
-0.00708418 0.000783382 0
-0.00745616 -0.000619649 0
-0.00841027 -4.91604e-05 0
-0.0077628 0.00051278 0
-0.0071889 -7.70194e-05 0
-0.00790396 -0.000367696 0
-0.00815845 0.000197713 0
-0.00749265 0.00027147 0
-0.00746394 -0.000242701 0
-0.00813071 -0.000360445 0
-0.00735826 -0.000839079 0
-0.00674457 -0.000737525 0
-0.00683277 -0.000452167 0
-0.00628743 0.000208417 0
-0.00623115 -0.000147623 0
-0.00656449 -9.1704e-05 0
-0.00638414 0.000171135 0
-0.00613827 -6.10766e-05 0
-0.00648036 -0.000179886 0
-0.00650119 0.000147231 0
-0.00563647 -0.00197258 0
-0.00501546 -0.00280795 0
-0.00423105 -0.0022871 0
-0.00226886 -0.00120351 0
-0.00146761 -0.00152882 0
-0.000551202 -0.000987017 0
-0.0006749 0.00960136 0
-0.00125857 0.00585913 0
0 0 0
0 0 0
0 0 0
0 0 0
0 0 0
0 0 0
0 0 0
0 0 0
0 0 0
0 0 0
-0.000827727 -0.000963491 0
-0.000795726 -0.00116004 0
5.61918e-05 -0.00062805 0
0 0 0
0 0 0
0 0 0
0 0 0
0 0 0
0 0 0
0 0 0
-0.000767574 -0.00121486 0
-0.00245486 -0.00180419 0
-0.00297568 -0.00390602 0
-0.00166813 -0.00208911 0
-0.00108897 -0.00142951 0
-0.000330387 -0.00217974 0
0.00184261 0.00838108 0
0.00193974 0.0071375 0
0 0 0
0 0 0
0 0 0
0 0 0
0 0 0
0 0 0
0 0 0
0 0 0
0 0 0
0 0 0
0 0 0
-0.000657746 -0.00159338 0
-0.00064055 -0.00116887 0
0 0 0
0 0 0
0 0 0
0 0 0
0 0 0
0 0 0
0 0 0
0 0 0
-0.00166388 -0.00032446 0
-0.00391171 -0.00280004 0
-0.00356616 -0.00376897 0
-0.000961604 -0.00393682 0
0.000640315 -0.00197727 0
0.000273729 0.00495906 0
0.000295734 0.0105035 0
0 0 0
0 0 0
0 0 0
-0.000108493 2.07934e-05 0
-0.001813 0.00114447 0
-0.00207341 -0.000905078 0
-0.00126172 0.000257651 0
-0.00215834 0.000349791 0
-0.00238652 -0.000199762 0
-0.00187906 -0.000115738 0
-0.00203245 0.000125951 0
-0.00242335 -0.000841933 0
-0.00317479 -0.00117005 0
-0.00350872 -0.000376674 0
-0.00330839 7.53376e-06 0
-0.00396922 0.000503226 0
-0.00481924 0.000114155 0
-0.00426136 -0.000523137 0
-0.00331724 -0.000101505 0
-0.0041758 0.000821937 0
-0.00555159 0.000557846 0
-0.00394898 -0.000674854 0
-0.00229707 -0.000871958 0
-0.00261784 -0.00512463 0
-0.00256386 -0.00640735 0
-0.000817221 -0.00196983 0
-0.00243626 0.00817623 0
-0.00246261 0.00733659 0
0 0 0
0 0 0
0 0 0
-0.00100954 0.001879 0
-0.000533721 0.000783286 0
-0.00100883 0.000254157 0
-0.00285593 0.000313725 0
-0.0019639 0.000449067 0
-0.0017328 -0.000204477 0
-0.00224109 -0.000103647 0
-0.00208838 0.000170428 0
-0.00210671 -0.000203621 0
-0.00291111 -0.000190427 0
-0.00353891 -0.00019372 0
-0.00439147 0.000821382 0
-0.00434185 0.000582693 0
-0.0034951 0.000118022 0
-0.00404923 -0.000558632 0
-0.0049978 -9.92214e-05 0
-0.00413436 0.000654237 0
-0.00276311 0.000284322 0
-0.00374021 -0.00103825 0
-0.00252104 -0.00464057 0
0.00103479 -0.00529164 0
-0.00092577 -0.00373893 0
-0.00154639 -0.00563365 0
0.000577977 0.011084 0
0.000404463 0.00425591 0
-0.000155945 0.000114386 0
0 0 0
0 0 0
0.00111319 0.00172219 0
0.000553206 0.000445213 0
-0.00045161 0.00193906 0
0 0 0
0 0 0
0 0 0
0 0 0
0 0 0
0 0 0
0 0 0
-0.00092796 0.00113838 0
-0.000898131 0.000303655 0
0 0 0
0 0 0
0 0 0
0 0 0
0 0 0
0 0 0
0 0 0
-0.00166378 -0.00667339 0
-0.00298799 -0.00500437 0
2.68612e-05 -0.00379139 0
0.00159748 -0.00554595 0
0.00282656 0.0061064 0
0.00357387 0.00919362 0
0.000518135 0.000864181 0
-0.000593894 -0.00062676 0
0 0 0
0 0 0
0.000914727 0.00236817 0
0.00113026 0.00176067 0
0 0 0
0 0 0
0 0 0
0 0 0
0 0 0
0 0 0
-0.000882615 0.00104679 0
-0.000536842 0.000689426 0
0.00038462 -0.000311693 0
0 0 0
0 0 0
0 0 0
0 0 0
0 0 0
0 0 0
-0.00140005 0.00136901 0
-0.00376544 -0.0024803 0
-0.00822934 -0.00362042 0
-0.00592669 -0.013593 0
0.00036732 -0.00274619 0
-0.00150103 0.00378381 0
0.00104845 0.00911027 0
0.00505581 0.00140707 0
0.00208327 0.00113891 0
0 0 0
0 0 0
0.000886177 0.00131332 0
0.00109644 0.00163897 0
-0.00424756 0.00379791 0
-0.00760654 -0.000200248 0
-0.00564332 -0.00103692 0
-0.00562777 0.000939658 0
-0.00768797 0.000428272 0
-0.00672705 -0.000879654 0
-0.00462103 0.00128777 0
-0.00619773 0.000764296 0
-0.00673654 -0.000780437 0
-0.00534401 0.000111221 0
-0.0071265 0.00115338 0
-0.0081197 -0.00053427 0
-0.00571641 -0.00107251 0
-0.00573646 0.00122796 0
-0.00891637 0.00124677 0
-0.00642623 -0.00033123 0
-0.00399934 0.00202373 0
-0.00966085 -0.000107228 0
-0.012745 -0.0167264 0
-0.00522477 -0.00968936 0
-0.00126347 0.00808215 0
-0.000254505 0.000402527 0
0.0011682 0.00167587 0
-9.85468e-05 0.00538002 0
0 0 0
0 0 0
0 0 0
-0.00237157 0.0064029 0
-0.00502769 0.00850018 0
-0.00536436 0.000204872 0
-0.00732789 -0.000914217 0
-0.00734209 0.000921728 0
-0.00528423 0.000387117 0
-0.00624214 -0.000970521 0
-0.00746997 0.000167803 0
-0.00513363 0.0010362 0
-0.00539796 0.000253597 0
-0.00802966 0.000351805 0
-0.00649769 0.0012313 0
-0.00549941 -0.000537798 0
-0.00790813 -0.0010652 0
-0.007883 0.00108169 0
-0.00470769 0.00108293 0
-0.00579327 -0.00199871 0
-0.0070304 0.00170037 0
-0.00161268 -0.00190417 0
-0.00324622 -0.00801207 0
-0.00382698 -0.0234734 0
0.00174136 0.00755194 0
-0.00629742 0.006279 0
-0.0141979 0.00177081 0
-0.00788432 0.00147855 0
-0.00104089 -0.00165937 0
0 0 0
0 0 0
0.00173146 0.00837974 0
0.00181064 0.00870284 0
0 0 0
0 0 0
0 0 0
0 0 0
0 0 0
0 0 0
0 0 0
0.000492321 0.001191 0
0.000457619 0.000898712 0
0 0 0
0 0 0
0 0 0
0 0 0
0 0 0
0 0 0
0 0 0
-0.00137089 -0.00246919 0
0.00614545 -0.0148147 0
0.00800772 -0.0173767 0
-0.00199322 0.00782405 0
-0.0118857 0.0238223 0
-0.0117196 -0.00290275 0
-0.00502394 -0.00674295 0
-0.00275523 -0.00644555 0
0 0 0
0 0 0
-0.000259312 0.00552658 0
0.00374247 0.00642722 0
0.00412454 0.0048142 0
0.000763413 0.000168615 0
0.000175238 0.000186101 0
0 0 0
0 0 0
0 0 0
0 0 0
0 0 0
0.000474261 0.0016008 0
0.000178011 0.000659968 0
-0.000550127 4.0365e-06 0
-0.000308317 -0.000177159 0
0 0 0
0 0 0
0 0 0
0 0 0
0 0 0
-0.000788114 -0.0287809 0
-0.000450764 -0.00588648 0
-0.00634226 0.0200835 0
-0.00933304 0.0188041 0
-0.000864417 -0.00796701 0
0.00497636 -0.0105313 0
-0.00152597 -0.00114796 0
-0.00987259 -0.000587542 0
-0.00507439 -0.00257375 0
-0.000664279 0.00414543 0
-0.00295909 0.00667826 0
-0.000389609 0.00271473 0
0.00462512 0.00100663 0
0.0018744 0.00180386 0
0.00153212 -0.00106881 0
0.0047101 -0.000981899 0
0.00378448 0.00161407 0
0.000734479 0.000420612 0
0.00284671 -0.0016157 0
0.00589922 0.00132852 0
0.0026692 0.0031008 0
0.00116647 -0.00121353 0
0.00650772 -0.00265794 0
0.0062745 0.00240965 0
-6.35318e-05 0.00153792 0
0.0032152 -0.0038452 0
0.00914843 1.52025e-05 0
0.00250536 0.00429435 0
-0.0110529 -0.0174447 0
-0.00808608 -0.0184875 0
0.0232958 0.0151463 0
0.0503516 0.0033485 0
0.0490244 -0.00404729 0
0.0353593 -0.00511185 0
0.0341486 0.00403704 0
0.0386952 -0.000675509 0
0.0338946 -0.00265692 0
0.031693 0.0012544 0
0.0396234 0.00401528 0
0.0421817 -0.00214108 0
0.0405229 0.000865969 0
0.0438674 0.0014808 0
0.0443809 -0.00113842 0
0.0412033 -0.000983905 0
0.0421298 0.00164303 0
0.0451788 0.000350913 0
0.0430673 -0.00174024 0
0.0409219 0.000354998 0
0.0451527 0.00250711 0
0.0473823 -0.0011412 0
0.0417999 -0.0025108 0
0.0417247 0.00254362 0
0.0480625 0.00158983 0
0.0447841 -0.00387297 0
0.0388502 0.000102972 0
0.0454943 0.00432961 0
0.0489328 -0.00207619 0
0.0236071 -0.0152911 0

