# vtk DataFile Version 4.0
SiwiRVisFile
ASCII
DATASET STRUCTURED_POINTS
DIMENSIONS 28 14 1
ORIGIN 0 0 0
SPACING 1 1 1
POINT_DATA 392

SCALARS flags double 1
LOOKUP_TABLE default
1
1
1
1
1
1
1
1
1
1
1
1
1
1
1
1
1
1
1
1
1
1
1
1
1
1
1
1
1
1
1
1
1
1
1
1
1
1
1
1
1
1
1
1
1
1
1
1
1
1
1
1
1
1
1
1
1
1
1
1
1
1
1
1
1
1
1
1
1
1
1
1
1
1
1
1
1
1
1
1
1
1
1
1
1
1
1
1
1
1
1
1
1
1
1
1
1
1
1
1
1
1
1
1
1
1
1
1
1
1
1
1
1
1
1
1
1
1
1
1
1
1
1
1
1
1
1
1
1
1
1
1
1
1
1
1
1
1
1
1
1
1
1
1
1
1
1
1
1
1
1
1
1
1
1
1
1
1
1
1
1
1
1
1
1
1
1
1
1
1
1
1
1
1
1
1
1
1
1
1
1
1
1
1
1
1
1
1
1
1
1
1
1
1
1
1
1
1
1
1
1
1
1
1
1
1
1
1
1
1
1
1
1
1
1
1
1
1
1
1
1
1
1
1
1
1
1
1
1
1
1
1
1
1
1
1
1
1
1
1
1
1
1
1
1
1
1
1
1
1
1
1
1
1
1
1
1
1
1
1
1
1
1
1
1
1
1
1
1
1
1
1
1
1
1
1
1
1
1
1
1
1
1
1
1
1
1
1
1
1
1
1
1
1
1
1
1
1
1
1
1
1
1
1
1
1
1
1
1
1
1
1
1
1
1
1
1
1
1
1
1
1
1
1
1
1
1
1
1
1
1
1
1
1
1
1
1
1
1
1
1
1
1
1
1
1
1
1
1
1
1
1
1
1
1
1
1
1
1
1
1
1
1
1
1
1
1
1
1
1
1
1
1
1
1
1
1
1
1
1
1
1
1
1
1
1
1
1
1
1
1
1

SCALARS density double 1
LOOKUP_TABLE default
0.987837
0.980741
0.979945
0.998752
0.998193
0.998091
0.998056
1.00046
1.00123
1.00056
1.00299
1.00558
1.00504
1.00505
1.00609
1.00603
1.00589
1.00715
1.00827
1.00903
1.0077
1.01236
1.01751
1.01487
1.01086
1.01578
1.01794
1.01194
0.98499
0.978596
0.982713
0.999478
0.995625
0.998557
0.999981
0.999238
1.00016
1.00209
1.00317
1.00414
1.00565
1.00586
1.00549
1.00543
1.00654
1.00761
1.00753
1.0087
1.00858
1.01253
1.01632
1.01494
1.01259
1.01485
1.01637
1.01367
0.976575
0.987045
0
0
0
0
0
0
0
0
0
0
1.00563
1.00562
1.00535
0
0
0
0
0
0
0
1.01031
1.01375
1.01927
1.01328
1.01036
1.01775
0.96728
0.969728
0
0
0
0
0
0
0
0
0
0
0
1.0057
1.00553
0
0
0
0
0
0
0
0
1.01449
1.01467
1.01475
1.01438
1.01424
0.975276
0.961985
0
0
0
1.00497
0.999898
1.00525
1.00813
1.00488
1.00456
1.00778
1.00848
1.00463
1.00506
1.00918
1.00724
1.00435
1.00936
1.01207
1.00757
1.01142
1.01829
1.01538
1.00937
1.01605
1.0194
1.01114
0.967623
0.970605
0
0
0
0.999851
1.00526
1.00733
1.00279
1.00486
1.00955
1.00598
1.00432
1.00793
1.00797
1.0047
1.00623
1.00942
1.00794
1.00743
1.01133
1.01471
1.01259
1.01418
1.01626
1.01386
1.01308
1.01678
0.963582
0.977936
0.972023
0
0
1.00485
1.00867
1.00158
0
0
0
0
0
0
0
1.00505
1.00647
0
0
0
0
0
0
0
1.02041
1.01332
1.00939
1.01781
0.974026
0.964259
0.966783
0.974568
0
0
1.00005
1.00125
0
0
0
0
0
0
1.00653
1.00688
1.00508
0
0
0
0
0
0
1.01408
1.01082
1.01619
1.01872
1.00993
0.973716
0.961013
0.9668
0.978223
0
0
0.996096
1.00292
1.00182
0.990927
0.999168
1.00535
1.00392
1.0035
1.00609
1.00759
1.00597
1.0038
1.00691
1.00977
1.00581
1.01013
1.01637
1.0159
1.00977
1.0149
1.01932
1.01215
0.961589
0.978468
0.972382
0.958973
0
0
0
0.996972
0.998988
0.996392
1.00009
1.00052
1.00418
1.00773
1.00508
1.00388
1.00722
1.00806
1.00414
1.00556
1.0106
1.01352
1.00936
1.0143
1.01943
1.012
1.00765
1.02262
0.967478
0.974913
0.969879
0.963236
0.970717
0
0
0.990961
0.992572
0
0
0
0
0
0
0
1.00481
1.00747
0
0
0
0
0
0
0
1.01482
1.00978
1.01647
0.97769
0.953839
0.965032
0.983718
0.968654
0
0
0.986475
0.982933
0.99325
0.993797
0.986779
0
0
0
0
0
1.00059
1.00534
1.00555
1.00182
0
0
0
0
0
1.02901
1.0045
0.964472
0.966977
0.969562
0.969653
0.969146
0.976515
0.985331
0.989371
0.989071
0.989104
0.987753
0.993754
0.994295
0.99389
0.995289
1.00081
1.00148
1.00028
1.00451
1.00668
1.00177
1.00409
1.01437
1.01002
1.00362
1.0192
1.01199
1.0119
0.958419
0.984727
0.971799
0.957447
0.973089
0.982218
0.980327
0.988058
0.992793
0.987126
0.988006
0.994347
0.992991
0.995489
0.996169
0.997026
1.00262
1.0053
1.00013
1.0016
1.01062
1.0069
1.00093
1.01281
1.01989
1.00768
0.996524
1.03471

VECTORS velocity double
-0.000507689 0.000508455 0
-0.00553276 0.00239535 0
-0.00840311 -6.40325e-06 0
-0.00803528 -0.000519828 0
-0.00707813 -0.000105176 0
-0.00772705 0.000492904 0
-0.00830004 -9.79349e-05 0
-0.0075854 -0.000382351 0
-0.007331 0.000189375 0
-0.00799646 0.00025818 0
-0.00802542 -0.000201789 0
-0.00735837 -0.000263081 0
-0.00730414 0.000233376 0
-0.00687886 -0.000493142 0
-0.00610966 6.22801e-06 0
-0.00644344 0.00022205 0
-0.0064997 -0.000135097 0
-0.00616644 -4.94409e-05 0
-0.0063473 0.000206704 0
-0.00659232 -8.81948e-06 0
-0.00625126 -0.000201536 0
-0.00622953 0.000315975 0
-0.00632736 -0.000306029 0
-0.00421809 -0.00106761 0
-0.00227453 -0.000203731 0
-0.00171254 -2.68134e-05 0
-0.00101182 -0.000555371 0
-4.30381e-05 -6.02199e-06 0
-0.00246346 0.00542709 0
-0.00726927 0.007178 0
-0.00708479 0.00077573 0
-0.00745566 -0.000629292 0
-0.00841032 -5.93845e-05 0
-0.00776266 0.000502305 0
-0.00718908 -8.6993e-05 0
-0.0079039 -0.00037708 0
-0.00815834 0.000188617 0
-0.00749269 0.000262985 0
-0.00746399 -0.000250253 0
-0.00813066 -0.000367155 0
-0.00735828 -0.000845014 0
-0.00674453 -0.000742625 0
-0.00683275 -0.000456452 0
-0.00628746 0.000205287 0
-0.00623114 -0.000149529 0
-0.00656452 -9.23766e-05 0
-0.00638411 0.000171583 0
-0.00613831 -5.9556e-05 0
-0.00648033 -0.000177479 0
-0.00650126 0.000150516 0
-0.00563641 -0.00196881 0
-0.00501555 -0.00280359 0
-0.00423094 -0.0022822 0
-0.00226894 -0.00119819 0
-0.00146752 -0.00152335 0
-0.00055135 -0.000981556 0
-0.000676451 0.00960554 0
-0.00125742 0.00586463 0
0 0 0
0 0 0
0 0 0
0 0 0
0 0 0
0 0 0
0 0 0
0 0 0
0 0 0
0 0 0
-0.000827578 -0.000957731 0
-0.000795844 -0.00115507 0
5.62881e-05 -0.000623855 0
0 0 0
0 0 0
0 0 0
0 0 0
0 0 0
0 0 0
0 0 0
-0.000767491 -0.00121838 0
-0.00245493 -0.00180808 0
-0.00297558 -0.0039105 0
-0.00166833 -0.00209409 0
-0.00108884 -0.0014347 0
-0.000330362 -0.00218487 0
0.00184478 0.0083767 0
0.0019374 0.00713277 0
0 0 0
0 0 0
0 0 0
0 0 0
0 0 0
0 0 0
0 0 0
0 0 0
0 0 0
0 0 0
0 0 0
-0.000657966 -0.00159803 0
-0.000640252 -0.00117274 0
0 0 0
0 0 0
0 0 0
0 0 0
0 0 0
0 0 0
0 0 0
0 0 0
-0.00166398 -0.000320875 0
-0.00391153 -0.00279611 0
-0.00356634 -0.00376444 0
-0.000961407 -0.00393196 0
0.000640067 -0.00197258 0
0.000272055 0.00496286 0
0.000297699 0.0105071 0
0 0 0
0 0 0
0 0 0
-0.00010756 2.19616e-05 0
-0.00181394 0.00114565 0
-0.0020725 -0.000903213 0
-0.00126252 0.000260237 0
-0.00215765 0.000353536 0
-0.00238697 -0.000195201 0
-0.00187877 -0.000111038 0
-0.00203263 0.000130589 0
-0.00242317 -0.000837608 0
-0.00317492 -0.00116667 0
-0.00350866 -0.000374655 0
-0.00330844 8.65681e-06 0
-0.00396927 0.0005039 0
-0.00481905 0.000114566 0
-0.00426164 -0.000523616 0
-0.0033169 -0.000102551 0
-0.00417619 0.000819991 0
-0.00555128 0.000555093 0
-0.00394929 -0.000678191 0
-0.00229688 -0.000875597 0
-0.00261798 -0.00512863 0
-0.00256378 -0.00641146 0
-0.000817272 -0.00197425 0
-0.00243559 0.00817331 0
-0.00246309 0.0073341 0
0 0 0
0 0 0
0 0 0
-0.00100858 0.00187785 0
-0.000534632 0.000782037 0
-0.00100795 0.00025249 0
-0.00285674 0.000311153 0
-0.00196313 0.000445222 0
-0.00173341 -0.000208972 0
-0.00224064 -0.000108308 0
-0.00208862 0.000165731 0
-0.00210664 -0.00020781 0
-0.00291118 -0.000193451 0
-0.00353884 -0.000195428 0
-0.00439147 0.00082035 0
-0.0043419 0.000581995 0
-0.00349492 0.000117612 0
-0.00404949 -0.000558173 0
-0.0049975 -9.81917e-05 0
-0.00413473 0.000656308 0
-0.00276278 0.000287089 0
-0.00374043 -0.00103525 0
-0.00252087 -0.00463727 0
0.00103473 -0.00528813 0
-0.000925553 -0.00373542 0
-0.00154691 -0.00562971 0
0.000577279 0.0110865 0
0.000404644 0.00425754 0
-0.000155445 0.000115128 0
0 0 0
0 0 0
0.00111412 0.0017233 0
0.000552292 0.000446376 0
-0.000450714 0.00194046 0
0 0 0
0 0 0
0 0 0
0 0 0
0 0 0
0 0 0
0 0 0
-0.000927726 0.00113978 0
-0.00089825 0.000304451 0
0 0 0
0 0 0
0 0 0
0 0 0
0 0 0
0 0 0
0 0 0
-0.00166352 -0.00667616 0
-0.00298842 -0.00500742 0
2.69989e-05 -0.00379479 0
0.00159767 -0.0055492 0
0.00282735 0.00610423 0
0.00357324 0.00919246 0
0.000518528 0.00086374 0
-0.000594127 -0.000625814 0
0 0 0
0 0 0
0.000913681 0.00236708 0
0.00113138 0.00175954 0
0 0 0
0 0 0
0 0 0
0 0 0
0 0 0
0 0 0
-0.000882686 0.00104557 0
-0.000536805 0.00068839 0
0.00038456 -0.000312045 0
0 0 0
0 0 0
0 0 0
0 0 0
0 0 0
0 0 0
-0.00140044 0.00137131 0
-0.00376504 -0.00247776 0
-0.0082297 -0.00361777 0
-0.00592622 -0.0135901 0
0.000366912 -0.00274315 0
-0.00150087 0.00378526 0
0.00104822 0.00911108 0
0.00505641 0.00140697 0
0.00208249 0.00113778 0
0 0 0
0 0 0
0.000885121 0.00131445 0
0.00109733 0.00163993 0
-0.00424835 0.00379865 0
-0.00760584 -0.000198922 0
-0.00564381 -0.00103504 0
-0.00562743 0.000941502 0
-0.00768823 0.000429814 0
-0.00672682 -0.000878177 0
-0.00462117 0.00128894 0
-0.00619762 0.000764922 0
-0.00673656 -0.00078052 0
-0.00534405 0.000110077 0
-0.00712642 0.00115131 0
-0.00812 -0.00053692 0
-0.00571609 -0.00107501 0
-0.00573672 0.00122543 0
-0.0089161 0.00124434 0
-0.00642653 -0.000333661 0
-0.003999 0.00202108 0
-0.00966124 -0.000109684 0
-0.012745 -0.0167283 0
-0.00522453 -0.00969228 0
-0.00126258 0.00808132 0
-0.00025527 0.000402326 0
0.00116886 0.00167656 0
-9.8955e-05 0.00538167 0
0 0 0
0 0 0
0 0 0
-0.00237029 0.00640215 0
-0.00502868 0.00849945 0
-0.00536371 0.000203648 0
-0.0073283 -0.000915882 0
-0.00734168 0.000919724 0
-0.00528459 0.000385478 0
-0.0062419 -0.000971885 0
-0.0074701 0.000166687 0
-0.00513358 0.00103578 0
-0.00539791 0.000253911 0
-0.00802974 0.000353051 0
-0.00649765 0.00123362 0
-0.00549952 -0.000535267 0
-0.00790787 -0.00106296 0
-0.00788342 0.0010845 0
-0.00470733 0.00108559 0
-0.00579335 -0.00199648 0
-0.00703067 0.00170325 0
-0.00161236 -0.00190168 0
-0.00324588 -0.0080104 0
-0.00382791 -0.0234714 0
0.00174258 0.0075522 0
-0.00629847 0.00627862 0
-0.0141972 0.00176965 0
-0.00788471 0.00147633 0
-0.0010405 -0.00166215 0
0 0 0
0 0 0
0.00173234 0.00837984 0
0.00180981 0.00870307 0
0 0 0
0 0 0
0 0 0
0 0 0
0 0 0
0 0 0
0 0 0
0.000492177 0.0011907 0
0.000458153 0.000897086 0
0 0 0
0 0 0
0 0 0
0 0 0
0 0 0
0 0 0
0 0 0
-0.00137217 -0.00247182 0
0.00614537 -0.0148165 0
0.00800862 -0.017378 0
-0.00199178 0.00782446 0
-0.0118864 0.0238231 0
-0.0117191 -0.00290091 0
-0.00502404 -0.00674093 0
-0.00275477 -0.0064436 0
0 0 0
0 0 0
-0.000258144 0.00552745 0
0.00374174 0.00642795 0
0.00412544 0.0048153 0
0.000762512 0.000170044 0
0.000176443 0.000187402 0
0 0 0
0 0 0
0 0 0
0 0 0
0 0 0
0.000475127 0.00160297 0
0.000178039 0.000663101 0
-0.000550521 7.2489e-06 0
-0.000307381 -0.000174664 0
0 0 0
0 0 0
0 0 0
0 0 0
0 0 0
-0.000786613 -0.0287791 0
-0.000451707 -0.00588481 0
-0.00634035 0.0200823 0
-0.00933357 0.0188024 0
-0.000864276 -0.00796902 0
0.0049766 -0.0105326 0
-0.00152625 -0.00114944 0
-0.00987229 -0.000588668 0
-0.00507514 -0.00257685 0
-0.000663456 0.0041439 0
-0.00295972 0.00667666 0
-0.000388952 0.0027134 0
0.0046247 0.00100491 0
0.00187468 0.00180258 0
0.00153191 -0.00107027 0
0.0047101 -0.000983456 0
0.00378459 0.00161231 0
0.000734248 0.000418747 0
0.00284656 -0.00161817 0
0.00589933 0.00132604 0
0.0026695 0.00309759 0
0.00116653 -0.00121673 0
0.00650772 -0.00266038 0
0.00627476 0.00240828 0
-6.41789e-05 0.00153527 0
0.00321521 -0.00384872 0
0.00914914 1.31381e-05 0
0.00250457 0.00429147 0
-0.0110525 -0.0174467 0
-0.00808562 -0.0184892 0
0.0232963 0.0151492 0
0.0503518 0.00335058 0
0.0490245 -0.00404575 0
0.0353588 -0.00511077 0
0.0341491 0.00403926 0
0.0386948 -0.000673961 0
0.0338949 -0.00265452 0
0.0316926 0.0012561 0
0.0396238 0.00401744 0
0.0421815 -0.00213964 0
0.0405231 0.000868065 0
0.0438673 0.00148246 0
0.0443809 -0.00113695 0
0.0412032 -0.000982259 0
0.0421299 0.00164509 0
0.0451787 0.000352746 0
0.0430673 -0.00173829 0
0.0409217 0.000357576 0
0.0451532 0.00251079 0
0.0473822 -0.00113827 0
0.0417998 -0.00250847 0
0.0417246 0.00254596 0
0.0480627 0.00159279 0
0.0447838 -0.00387062 0
0.0388502 0.000105288 0
0.0454949 0.00433292 0
0.0489329 -0.00207442 0
0.0236031 -0.015289 0

