# vtk DataFile Version 4.0
SiwiRVisFile
ASCII
DATASET STRUCTURED_POINTS
DIMENSIONS 28 14 1
ORIGIN 0 0 0
SPACING 1 1 1
POINT_DATA 392

SCALARS flags double 1
LOOKUP_TABLE default
1
1
1
1
1
1
1
1
1
1
1
1
1
1
1
1
1
1
1
1
1
1
1
1
1
1
1
1
1
1
1
1
1
1
1
1
1
1
1
1
1
1
1
1
1
1
1
1
1
1
1
1
1
1
1
1
1
1
1
1
1
1
1
1
1
1
1
1
1
1
1
1
1
1
1
1
1
1
1
1
1
1
1
1
1
1
1
1
1
1
1
1
1
1
1
1
1
1
1
1
1
1
1
1
1
1
1
1
1
1
1
1
1
1
1
1
1
1
1
1
1
1
1
1
1
1
1
1
1
1
1
1
1
1
1
1
1
1
1
1
1
1
1
1
1
1
1
1
1
1
1
1
1
1
1
1
1
1
1
1
1
1
1
1
1
1
1
1
1
1
1
1
1
1
1
1
1
1
1
1
1
1
1
1
1
1
1
1
1
1
1
1
1
1
1
1
1
1
1
1
1
1
1
1
1
1
1
1
1
1
1
1
1
1
1
1
1
1
1
1
1
1
1
1
1
1
1
1
1
1
1
1
1
1
1
1
1
1
1
1
1
1
1
1
1
1
1
1
1
1
1
1
1
1
1
1
1
1
1
1
1
1
1
1
1
1
1
1
1
1
1
1
1
1
1
1
1
1
1
1
1
1
1
1
1
1
1
1
1
1
1
1
1
1
1
1
1
1
1
1
1
1
1
1
1
1
1
1
1
1
1
1
1
1
1
1
1
1
1
1
1
1
1
1
1
1
1
1
1
1
1
1
1
1
1
1
1
1
1
1
1
1
1
1
1
1
1
1
1
1
1
1
1
1
1
1
1
1
1
1
1
1
1
1
1
1
1
1
1
1
1
1
1
1
1
1
1
1
1
1
1
1
1
1
1
1
1
1
1
1
1
1

SCALARS density double 1
LOOKUP_TABLE default
0.987837
0.980741
0.979945
0.998752
0.998193
0.998091
0.998056
1.00046
1.00123
1.00056
1.00299
1.00558
1.00504
1.00505
1.00609
1.00603
1.00589
1.00715
1.00827
1.00903
1.0077
1.01236
1.01751
1.01487
1.01086
1.01578
1.01794
1.01194
0.98499
0.978596
0.982713
0.999478
0.995625
0.998557
0.999981
0.999238
1.00016
1.00209
1.00317
1.00414
1.00565
1.00586
1.00549
1.00543
1.00654
1.00761
1.00753
1.0087
1.00858
1.01253
1.01632
1.01494
1.01259
1.01485
1.01637
1.01367
0.976575
0.987045
0
0
0
0
0
0
0
0
0
0
1.00563
1.00562
1.00535
0
0
0
0
0
0
0
1.01031
1.01375
1.01927
1.01328
1.01036
1.01775
0.96728
0.969728
0
0
0
0
0
0
0
0
0
0
0
1.0057
1.00553
0
0
0
0
0
0
0
0
1.01449
1.01467
1.01475
1.01438
1.01424
0.975276
0.961985
0
0
0
1.00497
0.999898
1.00525
1.00813
1.00488
1.00456
1.00778
1.00848
1.00463
1.00506
1.00918
1.00724
1.00435
1.00936
1.01207
1.00757
1.01142
1.01829
1.01538
1.00937
1.01605
1.0194
1.01114
0.967623
0.970605
0
0
0
0.999851
1.00526
1.00733
1.00279
1.00486
1.00955
1.00598
1.00432
1.00793
1.00797
1.0047
1.00623
1.00942
1.00794
1.00743
1.01133
1.01471
1.01259
1.01418
1.01626
1.01386
1.01308
1.01678
0.963582
0.977936
0.972023
0
0
1.00485
1.00867
1.00158
0
0
0
0
0
0
0
1.00505
1.00647
0
0
0
0
0
0
0
1.02041
1.01332
1.00939
1.01781
0.974026
0.964259
0.966783
0.974568
0
0
1.00005
1.00125
0
0
0
0
0
0
1.00653
1.00688
1.00508
0
0
0
0
0
0
1.01408
1.01082
1.01619
1.01872
1.00993
0.973716
0.961013
0.9668
0.978223
0
0
0.996096
1.00292
1.00182
0.990927
0.999168
1.00535
1.00392
1.0035
1.00609
1.00759
1.00597
1.0038
1.00691
1.00977
1.00581
1.01013
1.01637
1.0159
1.00977
1.0149
1.01932
1.01215
0.961589
0.978469
0.972382
0.958973
0
0
0
0.996972
0.998988
0.996392
1.00009
1.00052
1.00418
1.00773
1.00508
1.00388
1.00722
1.00806
1.00414
1.00556
1.0106
1.01352
1.00936
1.0143
1.01943
1.012
1.00765
1.02262
0.967478
0.974913
0.969879
0.963236
0.970717
0
0
0.990961
0.992572
0
0
0
0
0
0
0
1.00481
1.00747
0
0
0
0
0
0
0
1.01482
1.00978
1.01647
0.97769
0.953839
0.965032
0.983718
0.968654
0
0
0.986475
0.982933
0.99325
0.993797
0.986779
0
0
0
0
0
1.00059
1.00534
1.00555
1.00182
0
0
0
0
0
1.02901
1.0045
0.964472
0.966977
0.969562
0.969653
0.969146
0.976515
0.985331
0.989371
0.989071
0.989104
0.987753
0.993754
0.994295
0.99389
0.995289
1.00081
1.00148
1.00028
1.00451
1.00668
1.00177
1.00409
1.01437
1.01002
1.00362
1.0192
1.01199
1.0119
0.958419
0.984727
0.971799
0.957447
0.973089
0.982218
0.980327
0.988058
0.992793
0.987126
0.988006
0.994347
0.992991
0.995489
0.996169
0.997026
1.00262
1.0053
1.00013
1.0016
1.01062
1.0069
1.00093
1.01281
1.01989
1.00768
0.996524
1.03471

VECTORS velocity double
-0.000507137 0.000506806 0
-0.00553305 0.00239355 0
-0.00840311 -9.39711e-06 0
-0.00803541 -0.000523913 0
-0.00707801 -0.00010921 0
-0.00772709 0.000489091 0
-0.00830008 -0.00010169 0
-0.0075854 -0.000385949 0
-0.00733096 0.000186126 0
-0.00799649 0.000255242 0
-0.00802545 -0.000204479 0
-0.00735836 -0.000265454 0
-0.00730414 0.000231387 0
-0.00687888 -0.00049485 0
-0.00610963 4.92319e-06 0
-0.00644343 0.000221251 0
-0.00649971 -0.000135411 0
-0.00616642 -4.93007e-05 0
-0.00634732 0.000207236 0
-0.00659229 -7.90399e-06 0
-0.00625128 -0.000200308 0
-0.00622951 0.000317455 0
-0.00632736 -0.000304296 0
-0.00421802 -0.00106554 0
-0.00227461 -0.000201606 0
-0.00171249 -2.4543e-05 0
-0.00101183 -0.000552995 0
-4.30579e-05 -3.76318e-06 0
-0.00246331 0.00542872 0
-0.00726946 0.00718009 0
-0.00708454 0.000778797 0
-0.00745586 -0.000625477 0
-0.00841029 -5.54107e-05 0
-0.00776271 0.000506308 0
-0.007189 -8.32502e-05 0
-0.00790393 -0.000373618 0
-0.00815837 0.000191913 0
-0.00749268 0.000266007 0
-0.00746397 -0.000247616 0
-0.00813067 -0.000364862 0
-0.00735827 -0.000843027 0
-0.00674455 -0.000740967 0
-0.00683275 -0.000455131 0
-0.00628745 0.000206108 0
-0.00623114 -0.000149213 0
-0.00656451 -9.25175e-05 0
-0.00638412 0.000171043 0
-0.0061383 -6.04687e-05 0
-0.00648035 -0.000178687 0
-0.00650123 0.000149009 0
-0.00563643 -0.00197046 0
-0.00501551 -0.00280545 0
-0.00423099 -0.00228424 0
-0.00226891 -0.00120038 0
-0.00146756 -0.00152559 0
-0.000551293 -0.000983792 0
-0.000675795 0.00960377 0
-0.00125791 0.00586234 0
0 0 0
0 0 0
0 0 0
0 0 0
0 0 0
0 0 0
0 0 0
0 0 0
0 0 0
0 0 0
-0.000827635 -0.000959668 0
-0.000795792 -0.0011567 0
5.62423e-05 -0.000625174 0
0 0 0
0 0 0
0 0 0
0 0 0
0 0 0
0 0 0
0 0 0
-0.00076752 -0.00121684 0
-0.0024549 -0.00180643 0
-0.00297562 -0.00390864 0
-0.00166825 -0.00209205 0
-0.00108889 -0.00143259 0
-0.00033037 -0.00218278 0
0.00184387 0.00837857 0
0.00193838 0.00713477 0
0 0 0
0 0 0
0 0 0
0 0 0
0 0 0
0 0 0
0 0 0
0 0 0
0 0 0
0 0 0
0 0 0
-0.000657882 -0.00159649 0
-0.000640364 -0.0011715 0
0 0 0
0 0 0
0 0 0
0 0 0
0 0 0
0 0 0
0 0 0
0 0 0
-0.00166395 -0.000322392 0
-0.0039116 -0.00279773 0
-0.00356627 -0.00376628 0
-0.00096148 -0.00393392 0
0.000640157 -0.00197447 0
0.000272758 0.00496121 0
0.00029687 0.0105055 0
0 0 0
0 0 0
0 0 0
-0.000107909 2.14557e-05 0
-0.00181359 0.00114515 0
-0.00207284 -0.000903969 0
-0.00126222 0.000259228 0
-0.0021579 0.000352118 0
-0.00238681 -0.000196896 0
-0.00187887 -0.00011273 0
-0.00203257 0.000128976 0
-0.00242322 -0.000839052 0
-0.00317489 -0.00116776 0
-0.00350866 -0.000375257 0
-0.00330844 8.38201e-06 0
-0.00396924 0.000503826 0
-0.00481913 0.00011463 0
-0.00426152 -0.000523203 0
-0.00331704 -0.000101943 0
-0.00417604 0.000820914 0
-0.0055514 0.000556307 0
-0.00394917 -0.000676786 0
-0.00229695 -0.000874109 0
-0.00261793 -0.00512702 0
-0.00256381 -0.00640982 0
-0.00081725 -0.00197249 0
-0.00243593 0.00817461 0
-0.00246285 0.00733524 0
0 0 0
0 0 0
0 0 0
-0.00100895 0.00187835 0
-0.00053429 0.000782568 0
-0.00100828 0.000253171 0
-0.00285644 0.000312158 0
-0.00196342 0.000446678 0
-0.00173319 -0.000207301 0
-0.0022408 -0.000106629 0
-0.00208854 0.000167369 0
-0.00210665 -0.000206408 0
-0.00291117 -0.000192477 0
-0.00353885 -0.000194926 0
-0.00439148 0.000820598 0
-0.00434187 0.000582072 0
-0.00349499 0.000117547 0
-0.00404939 -0.000558566 0
-0.00499761 -9.87915e-05 0
-0.00413458 0.000655324 0
-0.00276291 0.000285866 0
-0.00374035 -0.00103651 0
-0.00252093 -0.0046386 0
0.00103475 -0.00528952 0
-0.000925628 -0.0037368 0
-0.00154672 -0.00563126 0
0.0005776 0.0110854 0
0.000404558 0.00425673 0
-0.00015568 0.000114595 0
0 0 0
0 0 0
0.00111377 0.00172281 0
0.000552637 0.000445877 0
-0.000451052 0.00193988 0
0 0 0
0 0 0
0 0 0
0 0 0
0 0 0
0 0 0
0 0 0
-0.000927781 0.00113938 0
-0.000898232 0.000304278 0
0 0 0
0 0 0
0 0 0
0 0 0
0 0 0
0 0 0
0 0 0
-0.0016636 -0.00667506 0
-0.00298827 -0.00500623 0
2.69485e-05 -0.00379348 0
0.00159759 -0.00554795 0
0.00282703 0.0061053 0
0.00357349 0.0091931 0
0.000518395 0.000864159 0
-0.000594063 -0.000625876 0
0 0 0
0 0 0
0.000914074 0.00236755 0
0.00113096 0.00176002 0
0 0 0
0 0 0
0 0 0
0 0 0
0 0 0
0 0 0
-0.000882683 0.00104592 0
-0.000536799 0.000688669 0
0.000384562 -0.000312011 0
0 0 0
0 0 0
0 0 0
0 0 0
0 0 0
0 0 0
-0.0014003 0.0013704 0
-0.00376519 -0.00247875 0
-0.00822957 -0.00361879 0
-0.00592639 -0.0135912 0
0.000367058 -0.0027443 0
-0.00150087 0.00378448 0
0.00104826 0.00911051 0
0.00505621 0.00140674 0
0.00208278 0.00113792 0
0 0 0
0 0 0
0.000885508 0.00131396 0
0.00109701 0.00163952 0
-0.00424808 0.00379836 0
-0.00760608 -0.000199392 0
-0.00564365 -0.00103569 0
-0.00562753 0.000940892 0
-0.00768816 0.000429312 0
-0.00672688 -0.000878627 0
-0.00462114 0.0012886 0
-0.00619764 0.000764785 0
-0.00673657 -0.000780418 0
-0.00534402 0.000110561 0
-0.00712646 0.00115213 0
-0.00811988 -0.000535861 0
-0.00571621 -0.00107401 0
-0.00573663 0.00122643 0
-0.0089162 0.0012453 0
-0.00642642 -0.000332705 0
-0.00399912 0.0020221 0
-0.00966109 -0.00010875 0
-0.012745 -0.0167276 0
-0.00522462 -0.00969119 0
-0.00126294 0.00808186 0
-0.000255007 0.000402683 0
0.00116869 0.00167659 0
-9.88529e-05 0.00538139 0
0 0 0
0 0 0
0 0 0
-0.00237073 0.00640248 0
-0.00502834 0.00849974 0
-0.00536393 0.000204084 0
-0.00732816 -0.000915305 0
-0.00734181 0.000920388 0
-0.00528448 0.000386012 0
-0.00624197 -0.00097147 0
-0.00747007 0.000167006 0
-0.00513358 0.00103584 0
-0.00539795 0.000253737 0
-0.0080297 0.000352545 0
-0.00649768 0.00123271 0
-0.00549947 -0.000536275 0
-0.00790797 -0.00106386 0
-0.00788326 0.00108339 0
-0.00470747 0.00108454 0
-0.00579332 -0.00199735 0
-0.00703057 0.00170214 0
-0.00161248 -0.00190262 0
-0.003246 -0.00801103 0
-0.00382757 -0.0234721 0
0.00174235 0.00755185 0
-0.00629823 0.00627852 0
-0.0141974 0.00176976 0
-0.00788458 0.00147679 0
-0.00104059 -0.00166151 0
0 0 0
0 0 0
0.00173206 0.00837973 0
0.0018101 0.00870292 0
0 0 0
0 0 0
0 0 0
0 0 0
0 0 0
0 0 0
0 0 0
0.000492221 0.00119087 0
0.000457968 0.0008977 0
0 0 0
0 0 0
0 0 0
0 0 0
0 0 0
0 0 0
0 0 0
-0.00137169 -0.00247083 0
0.00614539 -0.0148158 0
0.0080083 -0.0173775 0
-0.00199223 0.00782457 0
-0.0118862 0.023823 0
-0.0117192 -0.00290119 0
-0.00502402 -0.00674135 0
-0.00275486 -0.00644407 0
0 0 0
0 0 0
-0.000258499 0.00552727 0
0.00374198 0.00642782 0
0.00412515 0.00481503 0
0.000762795 0.000169636 0
0.000176072 0.000187017 0
0 0 0
0 0 0
0 0 0
0 0 0
0 0 0
0.000474808 0.00160221 0
0.000178039 0.000661982 0
-0.000550383 6.1064e-06 0
-0.00030771 -0.000175563 0
0 0 0
0 0 0
0 0 0
0 0 0
0 0 0
-0.000787174 -0.0287798 0
-0.000451347 -0.00588542 0
-0.00634067 0.0200825 0
-0.00933345 0.0188026 0
-0.000864305 -0.0079687 0
0.00497656 -0.0105324 0
-0.00152621 -0.00114908 0
-0.00987239 -0.000588422 0
-0.00507491 -0.00257598 0
-0.000663711 0.00414426 0
-0.00295952 0.00667706 0
-0.000389155 0.00271371 0
0.00462484 0.00100539 0
0.00187458 0.00180294 0
0.00153198 -0.00106983 0
0.00471009 -0.000983007 0
0.00378456 0.00161287 0
0.000734315 0.000419311 0
0.00284662 -0.00161738 0
0.00589928 0.00132688 0
0.0026694 0.00309872 0
0.0011665 -0.00121561 0
0.00650772 -0.0026595 0
0.00627466 0.00240876 0
-6.39439e-05 0.00153623 0
0.00321521 -0.00384747 0
0.00914889 1.38917e-05 0
0.00250486 0.00429251 0
-0.0110527 -0.017446 0
-0.00808578 -0.0184886 0
0.0232962 0.0151488 0
0.0503518 0.00335036 0
0.0490245 -0.00404598 0
0.035359 -0.00511094 0
0.0341489 0.00403871 0
0.038695 -0.00067434 0
0.0338948 -0.00265519 0
0.0316928 0.0012557 0
0.0396236 0.00401689 0
0.0421816 -0.00213999 0
0.040523 0.000867473 0
0.0438673 0.00148199 0
0.0443809 -0.00113739 0
0.0412032 -0.000982745 0
0.0421298 0.00164444 0
0.0451788 0.000352189 0
0.0430673 -0.00173892 0
0.0409218 0.000356712 0
0.045153 0.0025095 0
0.0473822 -0.0011393 0
0.0417998 -0.0025093 0
0.0417246 0.00254513 0
0.0480626 0.00159172 0
0.044784 -0.00387146 0
0.0388502 0.000104446 0
0.0454947 0.00433173 0
0.0489329 -0.00207506 0
0.0236046 -0.0152898 0

