# vtk DataFile Version 4.0
SiwiRVisFile
ASCII
DATASET STRUCTURED_POINTS
DIMENSIONS 28 14 1
ORIGIN 0 0 0
SPACING 1 1 1
POINT_DATA 392

SCALARS flags double 1
LOOKUP_TABLE default
1
1
1
1
1
1
1
1
1
1
1
1
1
1
1
1
1
1
1
1
1
1
1
1
1
1
1
1
1
1
1
1
1
1
1
1
1
1
1
1
1
1
1
1
1
1
1
1
1
1
1
1
1
1
1
1
1
1
1
1
1
1
1
1
1
1
1
1
1
1
1
1
1
1
1
1
1
1
1
1
1
1
1
1
1
1
1
1
1
1
1
1
1
1
1
1
1
1
1
1
1
1
1
1
1
1
1
1
1
1
1
1
1
1
1
1
1
1
1
1
1
1
1
1
1
1
1
1
1
1
1
1
1
1
1
1
1
1
1
1
1
1
1
1
1
1
1
1
1
1
1
1
1
1
1
1
1
1
1
1
1
1
1
1
1
1
1
1
1
1
1
1
1
1
1
1
1
1
1
1
1
1
1
1
1
1
1
1
1
1
1
1
1
1
1
1
1
1
1
1
1
1
1
1
1
1
1
1
1
1
1
1
1
1
1
1
1
1
1
1
1
1
1
1
1
1
1
1
1
1
1
1
1
1
1
1
1
1
1
1
1
1
1
1
1
1
1
1
1
1
1
1
1
1
1
1
1
1
1
1
1
1
1
1
1
1
1
1
1
1
1
1
1
1
1
1
1
1
1
1
1
1
1
1
1
1
1
1
1
1
1
1
1
1
1
1
1
1
1
1
1
1
1
1
1
1
1
1
1
1
1
1
1
1
1
1
1
1
1
1
1
1
1
1
1
1
1
1
1
1
1
1
1
1
1
1
1
1
1
1
1
1
1
1
1
1
1
1
1
1
1
1
1
1
1
1
1
1
1
1
1
1
1
1
1
1
1
1
1
1
1
1
1
1
1
1
1
1
1
1
1
1
1
1
1
1
1
1
1
1
1
1

SCALARS density double 1
LOOKUP_TABLE default
0.987837
0.980741
0.979945
0.998752
0.998193
0.998091
0.998056
1.00046
1.00123
1.00056
1.00299
1.00558
1.00504
1.00505
1.00609
1.00603
1.00589
1.00715
1.00827
1.00903
1.0077
1.01236
1.01751
1.01487
1.01086
1.01578
1.01794
1.01194
0.98499
0.978596
0.982713
0.999478
0.995625
0.998557
0.999981
0.999238
1.00016
1.00209
1.00317
1.00414
1.00565
1.00586
1.00549
1.00543
1.00654
1.00761
1.00753
1.0087
1.00858
1.01253
1.01632
1.01494
1.01259
1.01485
1.01637
1.01367
0.976575
0.987046
0
0
0
0
0
0
0
0
0
0
1.00563
1.00562
1.00535
0
0
0
0
0
0
0
1.01031
1.01375
1.01927
1.01328
1.01036
1.01775
0.96728
0.969728
0
0
0
0
0
0
0
0
0
0
0
1.0057
1.00553
0
0
0
0
0
0
0
0
1.01449
1.01467
1.01475
1.01438
1.01424
0.975276
0.961985
0
0
0
1.00497
0.999898
1.00525
1.00813
1.00488
1.00456
1.00778
1.00848
1.00463
1.00506
1.00918
1.00724
1.00435
1.00936
1.01207
1.00757
1.01142
1.01829
1.01538
1.00937
1.01605
1.0194
1.01114
0.967623
0.970605
0
0
0
0.999851
1.00526
1.00733
1.00279
1.00486
1.00955
1.00598
1.00432
1.00793
1.00797
1.0047
1.00623
1.00942
1.00794
1.00743
1.01133
1.01471
1.01259
1.01418
1.01626
1.01386
1.01308
1.01678
0.963582
0.977937
0.972023
0
0
1.00485
1.00867
1.00158
0
0
0
0
0
0
0
1.00505
1.00647
0
0
0
0
0
0
0
1.02041
1.01332
1.00939
1.01781
0.974026
0.964259
0.966783
0.974568
0
0
1.00005
1.00125
0
0
0
0
0
0
1.00653
1.00688
1.00508
0
0
0
0
0
0
1.01408
1.01082
1.01619
1.01872
1.00993
0.973716
0.961013
0.9668
0.978223
0
0
0.996096
1.00292
1.00182
0.990927
0.999168
1.00535
1.00392
1.0035
1.00609
1.00759
1.00597
1.0038
1.00691
1.00977
1.00581
1.01013
1.01637
1.0159
1.00977
1.0149
1.01932
1.01215
0.961589
0.978468
0.972382
0.958973
0
0
0
0.996972
0.998988
0.996392
1.00009
1.00052
1.00418
1.00773
1.00508
1.00388
1.00722
1.00806
1.00414
1.00556
1.0106
1.01352
1.00936
1.0143
1.01943
1.012
1.00765
1.02262
0.967478
0.974913
0.969879
0.963236
0.970717
0
0
0.990961
0.992572
0
0
0
0
0
0
0
1.00481
1.00747
0
0
0
0
0
0
0
1.01482
1.00978
1.01647
0.977689
0.953839
0.965032
0.983718
0.968654
0
0
0.986475
0.982933
0.99325
0.993797
0.986779
0
0
0
0
0
1.00059
1.00534
1.00555
1.00182
0
0
0
0
0
1.02901
1.0045
0.964472
0.966977
0.969562
0.969653
0.969146
0.976515
0.985331
0.989371
0.989071
0.989104
0.987753
0.993754
0.994295
0.99389
0.995289
1.00081
1.00148
1.00028
1.00451
1.00668
1.00177
1.00409
1.01437
1.01002
1.00362
1.0192
1.01199
1.0119
0.958419
0.984727
0.971799
0.957447
0.973089
0.982218
0.980327
0.988058
0.992793
0.987126
0.988006
0.994347
0.992991
0.995489
0.996169
0.997026
1.00262
1.0053
1.00013
1.0016
1.01062
1.0069
1.00093
1.01281
1.01989
1.00768
0.996523
1.03471

VECTORS velocity double
-0.000508764 0.000511727 0
-0.00553217 0.00239877 0
-0.00840314 -8.60415e-07 0
-0.00803501 -0.000512416 0
-0.00707839 -9.80747e-05 0
-0.00772697 0.000499424 0
-0.00829999 -9.17134e-05 0
-0.00758538 -0.00037657 0
-0.00733107 0.000194419 0
-0.00799642 0.00026258 0
-0.0080254 -0.00019792 0
-0.00735839 -0.000259828 0
-0.00730414 0.000235944 0
-0.00687882 -0.000491124 0
-0.00610969 7.46883e-06 0
-0.00644346 0.000222283 0
-0.00649969 -0.000135852 0
-0.00616647 -5.09457e-05 0
-0.00634726 0.00020462 0
-0.00659239 -1.14993e-05 0
-0.00625122 -0.000204663 0
-0.00622955 0.000312535 0
-0.00632739 -0.00030985 0
-0.00421822 -0.001072 0
-0.00227435 -0.000208124 0
-0.00171263 -3.14131e-05 0
-0.00101179 -0.000560148 0
-4.30005e-05 -1.0567e-05 0
-0.00246376 0.00542384 0
-0.00726892 0.00717396 0
-0.00708528 0.000770054 0
-0.00745524 -0.00063621 0
-0.0084104 -6.63786e-05 0
-0.00776254 0.000495459 0
-0.00718922 -9.31947e-05 0
-0.00790385 -0.00038264 0
-0.0081583 0.000183501 0
-0.00749271 0.000258456 0
-0.00746403 -0.000254045 0
-0.00813064 -0.000370288 0
-0.00735826 -0.000847592 0
-0.00674451 -0.000744602 0
-0.00683274 -0.000457767 0
-0.00628747 0.000205018 0
-0.00623116 -0.000148804 0
-0.00656455 -9.08803e-05 0
-0.0063841 0.000173705 0
-0.00613834 -5.68829e-05 0
-0.0064803 -0.000174406 0
-0.00650132 0.000154008 0
-0.00563634 -0.00196516 0
-0.00501562 -0.00279966 0
-0.00423085 -0.00227798 0
-0.002269 -0.00119377 0
-0.00146747 -0.00151887 0
-0.000551448 -0.000977079 0
-0.000677801 0.0096091 0
-0.00125642 0.00586913 0
0 0 0
0 0 0
0 0 0
0 0 0
0 0 0
0 0 0
0 0 0
0 0 0
0 0 0
0 0 0
-0.000827474 -0.000955186 0
-0.000795958 -0.00115305 0
5.63969e-05 -0.000622443 0
0 0 0
0 0 0
0 0 0
0 0 0
0 0 0
0 0 0
0 0 0
-0.000767456 -0.00122178 0
-0.00245498 -0.00181156 0
-0.00297552 -0.00391431 0
-0.00166846 -0.00209818 0
-0.00108874 -0.00143888 0
-0.000330347 -0.00218902 0
0.00184655 0.00837286 0
0.0019355 0.00712874 0
0 0 0
0 0 0
0 0 0
0 0 0
0 0 0
0 0 0
0 0 0
0 0 0
0 0 0
0 0 0
0 0 0
-0.000658112 -0.00159999 0
-0.00064006 -0.00117415 0
0 0 0
0 0 0
0 0 0
0 0 0
0 0 0
0 0 0
0 0 0
0 0 0
-0.00166402 -0.000317692 0
-0.00391142 -0.00279283 0
-0.00356647 -0.00376083 0
-0.000961286 -0.00392813 0
0.000639926 -0.00196889 0
0.000270622 0.00496633 0
0.000299396 0.0105103 0
0 0 0
0 0 0
0 0 0
-0.000106973 2.30258e-05 0
-0.00181454 0.00114669 0
-0.00207192 -0.00090177 0
-0.00126303 0.000262046 0
-0.00215722 0.000355939 0
-0.00238722 -0.000192427 0
-0.00187866 -0.000108443 0
-0.00203268 0.000132882 0
-0.00242312 -0.000835753 0
-0.00317493 -0.00116539 0
-0.00350869 -0.000374148 0
-0.00330838 8.63753e-06 0
-0.00396938 0.000503435 0
-0.00481888 0.000113742 0
-0.00426188 -0.000525087 0
-0.00331661 -0.000104304 0
-0.00417648 0.000817768 0
-0.00555108 0.000552405 0
-0.0039495 -0.000681114 0
-0.00229678 -0.000878564 0
-0.00261805 -0.00513172 0
-0.00256373 -0.00641462 0
-0.00081732 -0.0019776 0
-0.0024348 0.00817049 0
-0.00246371 0.00733152 0
0 0 0
0 0 0
0 0 0
-0.00100796 0.00187679 0
-0.000535212 0.000780946 0
-0.00100739 0.000251177 0
-0.00285726 0.000309355 0
-0.00196266 0.000442755 0
-0.00173375 -0.000211706 0
-0.00224042 -0.000110888 0
-0.00208872 0.000163385 0
-0.00210667 -0.000209621 0
-0.00291113 -0.000194573 0
-0.00353888 -0.00019582 0
-0.0043914 0.000820394 0
-0.00434199 0.000582474 0
-0.00349477 0.000118441 0
-0.00404969 -0.000556775 0
-0.00499728 -9.64601e-05 0
-0.00413501 0.000658683 0
-0.00276252 0.000289804 0
-0.00374058 -0.00103266 0
-0.00252075 -0.00463465 0
0.0010347 -0.0052855 0
-0.00092544 -0.00373284 0
-0.00154724 -0.00562683 0
0.000576536 0.0110893 0
0.000404855 0.00425953 0
-0.000154902 0.000116896 0
0 0 0
0 0 0
0.00111472 0.00172437 0
0.0005517 0.000447411 0
-0.000450135 0.00194163 0
0 0 0
0 0 0
0 0 0
0 0 0
0 0 0
0 0 0
0 0 0
-0.000927732 0.00114005 0
-0.000898199 0.000304331 0
0 0 0
0 0 0
0 0 0
0 0 0
0 0 0
0 0 0
0 0 0
-0.00166341 -0.00667827 0
-0.00298869 -0.00500963 0
2.70926e-05 -0.00379718 0
0.00159778 -0.00555148 0
0.00282795 0.00610161 0
0.00357279 0.00919072 0
0.000518695 0.00086216 0
-0.00059415 -0.00062676 0
0 0 0
0 0 0
0.000913015 0.00236608 0
0.0011321 0.00175855 0
0 0 0
0 0 0
0 0 0
0 0 0
0 0 0
0 0 0
-0.000882619 0.00104532 0
-0.000536876 0.000688286 0
0.00038462 -0.000311777 0
0 0 0
0 0 0
0 0 0
0 0 0
0 0 0
0 0 0
-0.00140068 0.00137303 0
-0.00376478 -0.00247591 0
-0.00822994 -0.00361592 0
-0.00592592 -0.0135882 0
0.000366667 -0.00274113 0
-0.00150108 0.00378736 0
0.00104828 0.00911291 0
0.00505667 0.00140831 0
0.00208204 0.00113861 0
0 0 0
0 0 0
0.0008845 0.00131551 0
0.00109782 0.00164079 0
-0.00424875 0.00379918 0
-0.0076055 -0.000198232 0
-0.00564402 -0.00103417 0
-0.00562731 0.000942248 0
-0.00768829 0.000430388 0
-0.00672678 -0.000877769 0
-0.00462117 0.00128916 0
-0.00619765 0.000764826 0
-0.00673649 -0.00078093 0
-0.00534414 0.000109066 0
-0.00712629 0.0011498 0
-0.00812025 -0.000538974 0
-0.00571585 -0.00107697 0
-0.0057369 0.00122352 0
-0.00891592 0.00124253 0
-0.00642674 -0.000335456 0
-0.00399878 0.00201922 0
-0.0096615 -0.000111328 0
-0.0127449 -0.0167296 0
-0.00522442 -0.00969414 0
-0.00126185 0.00807967 0
-0.000255626 0.000400743 0
0.00116888 0.00167543 0
-9.89523e-05 0.00538089 0
0 0 0
0 0 0
0 0 0
-0.00236968 0.00640142 0
-0.00502916 0.00849887 0
-0.00536338 0.000202996 0
-0.00732848 -0.000916664 0
-0.00734152 0.000918913 0
-0.00528471 0.000384867 0
-0.00624184 -0.00097226 0
-0.00747013 0.000166486 0
-0.0051336 0.001036 0
-0.0053978 0.000254386 0
-0.00802986 0.000354039 0
-0.00649757 0.00123529 0
-0.00549964 -0.000533317 0
-0.00790767 -0.00106121 0
-0.00788373 0.00108662 0
-0.00470707 0.00108758 0
-0.00579342 -0.00199484 0
-0.00703083 0.00170525 0
-0.00161217 -0.00190005 0
-0.00324564 -0.00800935 0
-0.00382851 -0.0234701 0
0.00174214 0.00755365 0
-0.00629836 0.00627962 0
-0.014197 0.00177062 0
-0.00788487 0.00147694 0
-0.00104055 -0.00166171 0
0 0 0
0 0 0
0.00173261 0.00838031 0
0.00180941 0.00870357 0
0 0 0
0 0 0
0 0 0
0 0 0
0 0 0
0 0 0
0 0 0
0.000492129 0.00119025 0
0.00045842 0.00089605 0
0 0 0
0 0 0
0 0 0
0 0 0
0 0 0
0 0 0
0 0 0
-0.00137299 -0.00247349 0
0.00614538 -0.0148175 0
0.00800905 -0.0173788 0
-0.00199137 0.00782331 0
-0.0118867 0.0238221 0
-0.0117191 -0.00290193 0
-0.00502401 -0.00674147 0
-0.00275488 -0.00644382 0
0 0 0
0 0 0
-0.000257859 0.0055272 0
0.00374146 0.00642764 0
0.00412575 0.00481518 0
0.000762239 0.000170237 0
0.000176761 0.000187651 0
0 0 0
0 0 0
0 0 0
0 0 0
0 0 0
0.000475643 0.00160406 0
0.000177991 0.000664758 0
-0.000550709 8.93008e-06 0
-0.000306921 -0.000173291 0
0 0 0
0 0 0
0 0 0
0 0 0
0 0 0
-0.000785642 -0.0287781 0
-0.000452369 -0.00588385 0
-0.00634127 0.0200833 0
-0.00933349 0.0188039 0
-0.000864311 -0.00796796 0
0.00497648 -0.0105319 0
-0.00152611 -0.00114934 0
-0.00987216 -0.000588423 0
-0.00507534 -0.00257716 0
-0.000663226 0.0041441 0
-0.00295994 0.00667678 0
-0.000388772 0.00271358 0
0.00462452 0.00100472 0
0.00187484 0.00180243 0
0.00153182 -0.00107059 0
0.00471015 -0.000983691 0
0.00378457 0.00161179 0
0.000734213 0.000418322 0
0.00284642 -0.00161898 0
0.0058994 0.00132501 0
0.00266961 0.00309599 0
0.00116661 -0.00121831 0
0.0065077 -0.0026617 0
0.00627494 0.00240762 0
-6.45472e-05 0.0015338 0
0.00321523 -0.00385059 0
0.00914954 1.19465e-05 0
0.00250407 0.00428989 0
-0.0110522 -0.0174477 0
-0.0080854 -0.0184901 0
0.0232962 0.0151474 0
0.0503513 0.00334893 0
0.0490248 -0.00404659 0
0.0353587 -0.00511132 0
0.0341493 0.00403914 0
0.0386946 -0.000674084 0
0.0338952 -0.00265427 0
0.0316924 0.00125588 0
0.0396239 0.0040174 0
0.0421813 -0.00213975 0
0.0405232 0.00086831 0
0.0438672 0.00148267 0
0.044381 -0.00113662 0
0.0412031 -0.000981946 0
0.04213 0.00164569 0
0.0451786 0.000353175 0
0.0430673 -0.00173764 0
0.0409216 0.000358628 0
0.0451534 0.00251259 0
0.047382 -0.00113683 0
0.0417999 -0.00250723 0
0.0417245 0.00254717 0
0.048063 0.00159442 0
0.0447836 -0.00386937 0
0.0388503 0.000106602 0
0.0454952 0.00433475 0
0.0489331 -0.0020734 0
0.0236003 -0.0152877 0

