# vtk DataFile Version 4.0
SiwiRVisFile
ASCII
DATASET STRUCTURED_POINTS
DIMENSIONS 28 14 1
ORIGIN 0 0 0
SPACING 1 1 1
POINT_DATA 392

SCALARS flags double 1
LOOKUP_TABLE default
1
1
1
1
1
1
1
1
1
1
1
1
1
1
1
1
1
1
1
1
1
1
1
1
1
1
1
1
1
1
1
1
1
1
1
1
1
1
1
1
1
1
1
1
1
1
1
1
1
1
1
1
1
1
1
1
1
1
1
1
1
1
1
1
1
1
1
1
1
1
1
1
1
1
1
1
1
1
1
1
1
1
1
1
1
1
1
1
1
1
1
1
1
1
1
1
1
1
1
1
1
1
1
1
1
1
1
1
1
1
1
1
1
1
1
1
1
1
1
1
1
1
1
1
1
1
1
1
1
1
1
1
1
1
1
1
1
1
1
1
1
1
1
1
1
1
1
1
1
1
1
1
1
1
1
1
1
1
1
1
1
1
1
1
1
1
1
1
1
1
1
1
1
1
1
1
1
1
1
1
1
1
1
1
1
1
1
1
1
1
1
1
1
1
1
1
1
1
1
1
1
1
1
1
1
1
1
1
1
1
1
1
1
1
1
1
1
1
1
1
1
1
1
1
1
1
1
1
1
1
1
1
1
1
1
1
1
1
1
1
1
1
1
1
1
1
1
1
1
1
1
1
1
1
1
1
1
1
1
1
1
1
1
1
1
1
1
1
1
1
1
1
1
1
1
1
1
1
1
1
1
1
1
1
1
1
1
1
1
1
1
1
1
1
1
1
1
1
1
1
1
1
1
1
1
1
1
1
1
1
1
1
1
1
1
1
1
1
1
1
1
1
1
1
1
1
1
1
1
1
1
1
1
1
1
1
1
1
1
1
1
1
1
1
1
1
1
1
1
1
1
1
1
1
1
1
1
1
1
1
1
1
1
1
1
1
1
1
1
1
1
1
1
1
1
1
1
1
1
1
1
1
1
1
1
1
1
1
1
1
1
1

SCALARS density double 1
LOOKUP_TABLE default
0.987837
0.980741
0.979945
0.998752
0.998193
0.998091
0.998056
1.00046
1.00123
1.00056
1.00299
1.00558
1.00504
1.00505
1.00609
1.00603
1.00589
1.00715
1.00827
1.00903
1.0077
1.01236
1.01751
1.01487
1.01086
1.01578
1.01794
1.01194
0.98499
0.978596
0.982713
0.999478
0.995625
0.998557
0.999981
0.999238
1.00016
1.00209
1.00317
1.00414
1.00565
1.00586
1.00549
1.00543
1.00654
1.00761
1.00753
1.0087
1.00858
1.01253
1.01632
1.01494
1.01259
1.01485
1.01637
1.01367
0.976575
0.987046
0
0
0
0
0
0
0
0
0
0
1.00563
1.00562
1.00535
0
0
0
0
0
0
0
1.01031
1.01375
1.01927
1.01328
1.01036
1.01775
0.96728
0.969728
0
0
0
0
0
0
0
0
0
0
0
1.0057
1.00553
0
0
0
0
0
0
0
0
1.01449
1.01467
1.01475
1.01438
1.01424
0.975276
0.961985
0
0
0
1.00497
0.999898
1.00525
1.00813
1.00488
1.00456
1.00778
1.00848
1.00463
1.00506
1.00918
1.00724
1.00435
1.00936
1.01207
1.00757
1.01142
1.01829
1.01538
1.00937
1.01605
1.0194
1.01114
0.967623
0.970605
0
0
0
0.999851
1.00526
1.00733
1.00279
1.00486
1.00955
1.00598
1.00432
1.00793
1.00797
1.0047
1.00623
1.00942
1.00794
1.00743
1.01133
1.01471
1.01259
1.01418
1.01626
1.01386
1.01308
1.01678
0.963582
0.977937
0.972023
0
0
1.00485
1.00867
1.00158
0
0
0
0
0
0
0
1.00505
1.00647
0
0
0
0
0
0
0
1.02041
1.01332
1.00939
1.01781
0.974026
0.964259
0.966783
0.974568
0
0
1.00005
1.00125
0
0
0
0
0
0
1.00653
1.00688
1.00508
0
0
0
0
0
0
1.01408
1.01082
1.01619
1.01872
1.00993
0.973716
0.961013
0.9668
0.978223
0
0
0.996096
1.00292
1.00182
0.990927
0.999168
1.00535
1.00392
1.0035
1.00609
1.00759
1.00597
1.0038
1.00691
1.00977
1.00581
1.01013
1.01637
1.0159
1.00977
1.0149
1.01932
1.01215
0.961589
0.978468
0.972382
0.958973
0
0
0
0.996972
0.998988
0.996392
1.00009
1.00052
1.00418
1.00773
1.00508
1.00388
1.00722
1.00806
1.00414
1.00556
1.0106
1.01352
1.00936
1.0143
1.01943
1.012
1.00765
1.02262
0.967478
0.974913
0.969879
0.963236
0.970717
0
0
0.990961
0.992572
0
0
0
0
0
0
0
1.00481
1.00747
0
0
0
0
0
0
0
1.01482
1.00978
1.01647
0.977689
0.953839
0.965032
0.983718
0.968654
0
0
0.986475
0.982933
0.99325
0.993797
0.986779
0
0
0
0
0
1.00059
1.00534
1.00555
1.00182
0
0
0
0
0
1.02901
1.0045
0.964472
0.966977
0.969562
0.969653
0.969146
0.976515
0.985331
0.989371
0.989071
0.989104
0.987753
0.993754
0.994295
0.99389
0.995289
1.00081
1.00148
1.00028
1.00451
1.00668
1.00177
1.00409
1.01437
1.01002
1.00362
1.0192
1.01199
1.0119
0.958419
0.984727
0.971799
0.957447
0.973089
0.982218
0.980327
0.988058
0.992793
0.987126
0.988006
0.994347
0.992991
0.995489
0.996169
0.997026
1.00262
1.0053
1.00013
1.0016
1.01062
1.0069
1.00093
1.01281
1.01989
1.00768
0.996523
1.03471

VECTORS velocity double
-0.000509017 0.000512498 0
-0.00553203 0.00239956 0
-0.00840315 3.79436e-07 0
-0.00803495 -0.000510784 0
-0.00707845 -9.65493e-05 0
-0.00772694 0.000500789 0
-0.00829999 -9.04472e-05 0
-0.00758538 -0.000375428 0
-0.00733109 0.000195381 0
-0.00799641 0.000263386 0
-0.0080254 -0.000197246 0
-0.0073584 -0.000259299 0
-0.00730414 0.000236324 0
-0.00687881 -0.000490874 0
-0.00610969 7.53689e-06 0
-0.00644346 0.00022211 0
-0.00649969 -0.000136268 0
-0.00616647 -5.15173e-05 0
-0.00634725 0.00020394 0
-0.0065924 -1.22953e-05 0
-0.00625121 -0.000205538 0
-0.00622956 0.000311615 0
-0.0063274 -0.000310843 0
-0.00421825 -0.00107312 0
-0.00227431 -0.00020922 0
-0.00171265 -3.25443e-05 0
-0.00101178 -0.000561317 0
-4.29913e-05 -1.16798e-05 0
-0.00246383 0.00542307 0
-0.00726883 0.00717302 0
-0.00708539 0.000768785 0
-0.00745514 -0.000637732 0
-0.00841042 -6.78804e-05 0
-0.00776251 0.000494025 0
-0.00718925 -9.44572e-05 0
-0.00790384 -0.000383738 0
-0.00815829 0.000182526 0
-0.00749271 0.000257626 0
-0.00746404 -0.000254706 0
-0.00813063 -0.000370796 0
-0.00735826 -0.000847976 0
-0.00674451 -0.000744852 0
-0.00683274 -0.00045786 0
-0.00628747 0.000205185 0
-0.00623117 -0.000148399 0
-0.00656455 -9.03125e-05 0
-0.00638409 0.000174396 0
-0.00613834 -5.60888e-05 0
-0.00648029 -0.000173546 0
-0.00650134 0.000154941 0
-0.00563633 -0.00196422 0
-0.00501564 -0.00279866 0
-0.00423083 -0.00227694 0
-0.00226902 -0.00119268 0
-0.00146745 -0.00151777 0
-0.000551469 -0.000975987 0
-0.000678131 0.00960995 0
-0.00125618 0.00587018 0
0 0 0
0 0 0
0 0 0
0 0 0
0 0 0
0 0 0
0 0 0
0 0 0
0 0 0
0 0 0
-0.000827451 -0.000954799 0
-0.000795988 -0.00115278 0
5.6426e-05 -0.00062231 0
0 0 0
0 0 0
0 0 0
0 0 0
0 0 0
0 0 0
0 0 0
-0.00076745 -0.00122266 0
-0.00245499 -0.00181244 0
-0.00297551 -0.00391525 0
-0.00166849 -0.00209917 0
-0.00108871 -0.00143989 0
-0.000330344 -0.00219002 0
0.00184695 0.00837194 0
0.00193506 0.00712778 0
0 0 0
0 0 0
0 0 0
0 0 0
0 0 0
0 0 0
0 0 0
0 0 0
0 0 0
0 0 0
0 0 0
-0.000658143 -0.00160027 0
-0.00064002 -0.00117431 0
0 0 0
0 0 0
0 0 0
0 0 0
0 0 0
0 0 0
0 0 0
0 0 0
-0.00166402 -0.000316891 0
-0.0039114 -0.00279203 0
-0.00356649 -0.00375995 0
-0.00096126 -0.00392721 0
0.000639897 -0.00196801 0
0.000270274 0.00496718 0
0.000299809 0.0105111 0
0 0 0
0 0 0
0 0 0
-0.000106851 2.32891e-05 0
-0.00181467 0.00114694 0
-0.0020718 -0.000901437 0
-0.00126314 0.000262443 0
-0.00215714 0.00035644 0
-0.00238727 -0.000191868 0
-0.00187864 -0.000107954 0
-0.00203268 0.000133275 0
-0.00242312 -0.000835481 0
-0.00317492 -0.00116524 0
-0.00350871 -0.000374144 0
-0.00330836 8.53518e-06 0
-0.00396941 0.000503217 0
-0.00481884 0.000113422 0
-0.00426193 -0.000525556 0
-0.00331654 -0.000104823 0
-0.00417654 0.000817162 0
-0.00555104 0.000551706 0
-0.00394955 -0.000681845 0
-0.00229676 -0.000879285 0
-0.00261806 -0.00513246 0
-0.00256372 -0.00641536 0
-0.000817334 -0.00197839 0
-0.00243459 0.00816978 0
-0.00246387 0.00733085 0
0 0 0
0 0 0
0 0 0
-0.00100783 0.00187652 0
-0.000535334 0.000780681 0
-0.00100727 0.00025087 0
-0.00285737 0.000308961 0
-0.00196257 0.000442241 0
-0.00173382 -0.000212257 0
-0.00224038 -0.000111375 0
-0.00208874 0.000162979 0
-0.00210668 -0.000209889 0
-0.00291111 -0.000194702 0
-0.00353889 -0.00019581 0
-0.00439138 0.000820497 0
-0.00434202 0.000582699 0
-0.00349473 0.000118762 0
-0.00404973 -0.000556331 0
-0.00499723 -9.59477e-05 0
-0.00413507 0.000659331 0
-0.00276246 0.000290511 0
-0.00374062 -0.00103201 0
-0.00252072 -0.00463402 0
0.00103469 -0.00528489 0
-0.000925418 -0.00373224 0
-0.0015473 -0.00562617 0
0.000576339 0.01109 0
0.000404915 0.00426007 0
-0.000154763 0.000117442 0
0 0 0
0 0 0
0.00111485 0.00172463 0
0.000551575 0.000447665 0
-0.000450013 0.0019419 0
0 0 0
0 0 0
0 0 0
0 0 0
0 0 0
0 0 0
0 0 0
-0.000927753 0.00114003 0
-0.000898173 0.000304221 0
0 0 0
0 0 0
0 0 0
0 0 0
0 0 0
0 0 0
0 0 0
-0.00166339 -0.00667876 0
-0.00298874 -0.00501013 0
2.71163e-05 -0.00379772 0
0.0015978 -0.00555199 0
0.00282809 0.0061009 0
0.0035727 0.00919022 0
0.000518715 0.000861651 0
-0.000594135 -0.000627179 0
0 0 0
0 0 0
0.000912875 0.00236583 0
0.00113224 0.00175831 0
0 0 0
0 0 0
0 0 0
0 0 0
0 0 0
0 0 0
-0.00088259 0.00104535 0
-0.000536903 0.000688338 0
0.000384646 -0.000311655 0
0 0 0
0 0 0
0 0 0
0 0 0
0 0 0
0 0 0
-0.00140074 0.00137343 0
-0.00376472 -0.00247549 0
-0.00822999 -0.00361551 0
-0.00592585 -0.0135878 0
0.000366615 -0.00274069 0
-0.00150117 0.00378795 0
0.00104832 0.00911348 0
0.00505671 0.00140878 0
0.00208196 0.00113901 0
0 0 0
0 0 0
0.000884376 0.00131577 0
0.00109792 0.00164099 0
-0.00424883 0.0037993 0
-0.00760545 -0.00019811 0
-0.00564405 -0.00103403 0
-0.0056273 0.000942344 0
-0.0076883 0.00043045 0
-0.00672678 -0.000877755 0
-0.00462115 0.00128913 0
-0.00619766 0.000764739 0
-0.00673646 -0.000781063 0
-0.00534417 0.000108814 0
-0.00712625 0.00114946 0
-0.00812032 -0.000539466 0
-0.00571579 -0.00107744 0
-0.00573694 0.00122306 0
-0.00891588 0.00124211 0
-0.0064268 -0.000335872 0
-0.00399873 0.0020188 0
-0.00966156 -0.000111686 0
-0.0127449 -0.0167298 0
-0.0052244 -0.00969453 0
-0.00126168 0.00807917 0
-0.000255679 0.00040021 0
0.00116883 0.00167498 0
-9.89142e-05 0.00538046 0
0 0 0
0 0 0
0 0 0
-0.00236959 0.00640124 0
-0.00502924 0.00849874 0
-0.00536332 0.000202877 0
-0.00732852 -0.000916786 0
-0.0073415 0.000918809 0
-0.00528472 0.0003848 0
-0.00624184 -0.000972271 0
-0.00747012 0.000166512 0
-0.00513362 0.00103612 0
-0.00539776 0.000254521 0
-0.0080299 0.000354272 0
-0.00649754 0.00123567 0
-0.00549968 -0.000532852 0
-0.00790762 -0.00106079 0
-0.0078838 0.00108713 0
-0.00470701 0.00108804 0
-0.00579344 -0.00199447 0
-0.00703085 0.0017057 0
-0.00161214 -0.00189971 0
-0.00324558 -0.00800912 0
-0.00382864 -0.0234699 0
0.00174187 0.00755414 0
-0.00629822 0.00628001 0
-0.014197 0.00177107 0
-0.00788489 0.00147736 0
-0.00104061 -0.00166129 0
0 0 0
0 0 0
0.00173263 0.00838046 0
0.00180935 0.00870372 0
0 0 0
0 0 0
0 0 0
0 0 0
0 0 0
0 0 0
0 0 0
0.000492125 0.00119012 0
0.000458466 0.000895837 0
0 0 0
0 0 0
0 0 0
0 0 0
0 0 0
0 0 0
0 0 0
-0.00137317 -0.00247384 0
0.0061454 -0.0148178 0
0.00800911 -0.0173789 0
-0.00199136 0.00782287 0
-0.0118868 0.0238218 0
-0.0117192 -0.00290246 0
-0.00502399 -0.00674185 0
-0.00275496 -0.00644408 0
0 0 0
0 0 0
-0.000257867 0.00552703 0
0.00374142 0.00642746 0
0.00412577 0.00481503 0
0.000762227 0.000170165 0
0.000176759 0.000187611 0
0 0 0
0 0 0
0 0 0
0 0 0
0 0 0
0.000475743 0.00160424 0
0.000177972 0.000665046 0
-0.000550739 9.22141e-06 0
-0.000306847 -0.000173042 0
0 0 0
0 0 0
0 0 0
0 0 0
0 0 0
-0.000785435 -0.0287779 0
-0.00045252 -0.00588366 0
-0.00634177 0.0200837 0
-0.0093334 0.0188046 0
-0.000864336 -0.00796739 0
0.00497642 -0.0105316 0
-0.00152603 -0.00114916 0
-0.00987214 -0.000588228 0
-0.00507534 -0.00257698 0
-0.000663223 0.00414432 0
-0.00295996 0.00667697 0
-0.00038877 0.00271377 0
0.0046245 0.00100482 0
0.00187487 0.0018025 0
0.00153181 -0.00107056 0
0.00471017 -0.000983623 0
0.00378455 0.00161178 0
0.000734222 0.000418352 0
0.00284638 -0.00161902 0
0.00589942 0.00132488 0
0.00266962 0.00309573 0
0.00116664 -0.00121857 0
0.00650769 -0.00266193 0
0.00627497 0.00240752 0
-6.46163e-05 0.00153353 0
0.00321523 -0.00385092 0
0.00914962 1.17202e-05 0
0.00250396 0.0042896 0
-0.0110521 -0.017448 0
-0.00808536 -0.0184903 0
0.0232961 0.0151466 0
0.0503512 0.00334816 0
0.0490249 -0.00404703 0
0.0353587 -0.00511162 0
0.0341493 0.00403889 0
0.0386946 -0.000674276 0
0.0338952 -0.00265441 0
0.0316924 0.00125564 0
0.0396239 0.00401717 0
0.0421813 -0.00213994 0
0.0405232 0.000868191 0
0.0438672 0.00148258 0
0.044381 -0.00113665 0
0.0412031 -0.000981995 0
0.04213 0.0016457 0
0.0451786 0.00035315 0
0.0430674 -0.00173759 0
0.0409216 0.000358754 0
0.0451535 0.00251287 0
0.047382 -0.0011366 0
0.0417999 -0.00250701 0
0.0417245 0.00254737 0
0.048063 0.00159472 0
0.0447836 -0.00386915 0
0.0388503 0.000106849 0
0.0454953 0.00433509 0
0.0489331 -0.0020732 0
0.0235996 -0.0152873 0

