# vtk DataFile Version 4.0
SiwiRVisFile
ASCII
DATASET STRUCTURED_POINTS
DIMENSIONS 28 14 1
ORIGIN 0 0 0
SPACING 1 1 1
POINT_DATA 392

SCALARS flags double 1
LOOKUP_TABLE default
1
1
1
1
1
1
1
1
1
1
1
1
1
1
1
1
1
1
1
1
1
1
1
1
1
1
1
1
1
1
1
1
1
1
1
1
1
1
1
1
1
1
1
1
1
1
1
1
1
1
1
1
1
1
1
1
1
1
1
1
1
1
1
1
1
1
1
1
1
1
1
1
1
1
1
1
1
1
1
1
1
1
1
1
1
1
1
1
1
1
1
1
1
1
1
1
1
1
1
1
1
1
1
1
1
1
1
1
1
1
1
1
1
1
1
1
1
1
1
1
1
1
1
1
1
1
1
1
1
1
1
1
1
1
1
1
1
1
1
1
1
1
1
1
1
1
1
1
1
1
1
1
1
1
1
1
1
1
1
1
1
1
1
1
1
1
1
1
1
1
1
1
1
1
1
1
1
1
1
1
1
1
1
1
1
1
1
1
1
1
1
1
1
1
1
1
1
1
1
1
1
1
1
1
1
1
1
1
1
1
1
1
1
1
1
1
1
1
1
1
1
1
1
1
1
1
1
1
1
1
1
1
1
1
1
1
1
1
1
1
1
1
1
1
1
1
1
1
1
1
1
1
1
1
1
1
1
1
1
1
1
1
1
1
1
1
1
1
1
1
1
1
1
1
1
1
1
1
1
1
1
1
1
1
1
1
1
1
1
1
1
1
1
1
1
1
1
1
1
1
1
1
1
1
1
1
1
1
1
1
1
1
1
1
1
1
1
1
1
1
1
1
1
1
1
1
1
1
1
1
1
1
1
1
1
1
1
1
1
1
1
1
1
1
1
1
1
1
1
1
1
1
1
1
1
1
1
1
1
1
1
1
1
1
1
1
1
1
1
1
1
1
1
1
1
1
1
1
1
1
1
1
1
1
1
1
1
1
1
1
1
1

SCALARS density double 1
LOOKUP_TABLE default
0.987839
0.980742
0.979946
0.998752
0.998192
0.998091
0.998056
1.00046
1.00123
1.00056
1.00299
1.00558
1.00504
1.00505
1.00609
1.00603
1.00589
1.00715
1.00827
1.00903
1.0077
1.01236
1.01751
1.01487
1.01086
1.01578
1.01794
1.01194
0.984992
0.978597
0.982714
0.999477
0.995625
0.998557
0.999981
0.999237
1.00016
1.00209
1.00317
1.00414
1.00565
1.00586
1.00549
1.00543
1.00654
1.00761
1.00753
1.0087
1.00858
1.01253
1.01631
1.01494
1.01258
1.01485
1.01637
1.01367
0.976576
0.987048
0
0
0
0
0
0
0
0
0
0
1.00563
1.00562
1.00535
0
0
0
0
0
0
0
1.01031
1.01375
1.01926
1.01328
1.01036
1.01775
0.967283
0.969731
0
0
0
0
0
0
0
0
0
0
0
1.0057
1.00553
0
0
0
0
0
0
0
0
1.01448
1.01467
1.01475
1.01437
1.01424
0.975279
0.961988
0
0
0
1.00497
0.999898
1.00525
1.00813
1.00488
1.00456
1.00778
1.00848
1.00463
1.00506
1.00918
1.00724
1.00435
1.00936
1.01207
1.00757
1.01142
1.01828
1.01538
1.00937
1.01605
1.01939
1.01113
0.967627
0.970608
0
0
0
0.999852
1.00526
1.00733
1.00279
1.00486
1.00955
1.00598
1.00432
1.00792
1.00797
1.0047
1.00623
1.00942
1.00794
1.00743
1.01133
1.0147
1.01259
1.01418
1.01626
1.01386
1.01308
1.01678
0.963585
0.97794
0.972027
0
0
1.00485
1.00867
1.00158
0
0
0
0
0
0
0
1.00505
1.00647
0
0
0
0
0
0
0
1.02041
1.01331
1.00939
1.01781
0.97403
0.964262
0.966787
0.974572
0
0
1.00005
1.00125
0
0
0
0
0
0
1.00653
1.00688
1.00508
0
0
0
0
0
0
1.01408
1.01082
1.01619
1.01872
1.00993
0.973721
0.961018
0.966803
0.978227
0
0
0.996098
1.00292
1.00182
0.990929
0.999169
1.00535
1.00392
1.0035
1.00609
1.00759
1.00597
1.0038
1.00691
1.00977
1.00581
1.01012
1.01636
1.0159
1.00977
1.0149
1.0193
1.01214
0.961592
0.978472
0.972385
0.958977
0
0
0
0.996974
0.998989
0.996394
1.00009
1.00052
1.00418
1.00773
1.00508
1.00388
1.00722
1.00806
1.00414
1.00555
1.0106
1.01352
1.00935
1.01429
1.01942
1.012
1.00765
1.02263
0.967482
0.974919
0.969883
0.963237
0.97072
0
0
0.990963
0.992576
0
0
0
0
0
0
0
1.00481
1.00747
0
0
0
0
0
0
0
1.01482
1.00977
1.01645
0.977693
0.953837
0.965037
0.983724
0.968658
0
0
0.986479
0.982938
0.993252
0.993802
0.986784
0
0
0
0
0
1.00059
1.00535
1.00554
1.00183
0
0
0
0
0
1.02901
1.0045
0.964478
0.966987
0.96956
0.969656
0.969147
0.97652
0.985334
0.989377
0.989072
0.98911
0.987754
0.993763
0.994293
0.993896
0.995291
1.00081
1.00147
1.0003
1.00449
1.0067
1.00175
1.0041
1.01436
1.01004
1.00359
1.01925
1.01193
1.01191
0.95842
0.984729
0.971805
0.957452
0.97309
0.982225
0.980328
0.988066
0.99279
0.98714
0.987999
0.994368
0.992971
0.995527
0.996128
0.99708
1.00257
1.00535
1.00007
1.00166
1.01057
1.00694
1.00092
1.0128
1.01994
1.0076
0.99661
1.03463

VECTORS velocity double
-0.000509993 0.000516731 0
-0.00553062 0.00240262 0
-0.00840242 3.91533e-06 0
-0.00803383 -0.000507742 0
-0.00707785 -9.5433e-05 0
-0.00772596 0.000500032 0
-0.00829921 -9.29387e-05 0
-0.00758458 -0.000379705 0
-0.00733012 0.000189826 0
-0.00799566 0.000256617 0
-0.00802465 -0.000205269 0
-0.00735745 -0.000268461 0
-0.00730326 0.000226661 0
-0.00687802 -0.000501825 0
-0.00610853 -5.09515e-06 0
-0.00644217 0.000207241 0
-0.00649899 -0.000154258 0
-0.00616476 -7.06511e-05 0
-0.00634657 0.00018187 0
-0.00658986 -3.85902e-05 0
-0.0062512 -0.000243871 0
-0.00622645 0.000254257 0
-0.00632897 -0.000399278 0
-0.00422004 -0.00119815 0
-0.00227155 -0.000356065 0
-0.00171293 -0.000198334 0
-0.00101359 -0.00073944 0
-3.75609e-05 -0.000182628 0
-0.00246405 0.00541776 0
-0.00726773 0.0071678 0
-0.00708506 0.000765081 0
-0.00745388 -0.000640466 0
-0.0084097 -6.89931e-05 0
-0.00776164 0.000494774 0
-0.00718841 -9.19414e-05 0
-0.00790298 -0.000379649 0
-0.00815753 0.000188158 0
-0.00749188 0.00026466 0
-0.00746301 -0.000246886 0
-0.00813006 -0.000361967 0
-0.0073571 -0.000838395 0
-0.00674353 -0.000734564 0
-0.00683174 -0.000446395 0
-0.00628626 0.000220084 0
-0.0062305 -0.000130484 0
-0.00656261 -7.13691e-05 0
-0.00638386 0.000196491 0
-0.0061353 -2.96161e-05 0
-0.00648104 -0.000135135 0
-0.00649814 0.000214782 0
-0.00563855 -0.00187768 0
-0.00501144 -0.00268286 0
-0.00423144 -0.00213525 0
-0.00226708 -0.0010343 0
-0.00146806 -0.00135161 0
-0.000552148 -0.000806056 0
-0.00068005 0.00961524 0
-0.00125475 0.00587584 0
0 0 0
0 0 0
0 0 0
0 0 0
0 0 0
0 0 0
0 0 0
0 0 0
0 0 0
0 0 0
-0.000827355 -0.00096383 0
-0.000796398 -0.00116244 0
5.6914e-05 -0.000632796 0
0 0 0
0 0 0
0 0 0
0 0 0
0 0 0
0 0 0
0 0 0
-0.000772602 -0.00130331 0
-0.00244976 -0.00191944 0
-0.00297975 -0.00404319 0
-0.00166643 -0.00224184 0
-0.00109287 -0.00158945 0
-0.000322998 -0.00234489 0
0.00184783 0.0083615 0
0.00193407 0.00711793 0
0 0 0
0 0 0
0 0 0
0 0 0
0 0 0
0 0 0
0 0 0
0 0 0
0 0 0
0 0 0
0 0 0
-0.000658103 -0.00159257 0
-0.000640402 -0.00116599 0
0 0 0
0 0 0
0 0 0
0 0 0
0 0 0
0 0 0
0 0 0
0 0 0
-0.0016507 -0.000213526 0
-0.00391907 -0.00267981 0
-0.00355701 -0.00364095 0
-0.000968999 -0.00380084 0
0.000649125 -0.00183859 0
0.000269533 0.00497956 0
0.00030085 0.0105259 0
0 0 0
0 0 0
0 0 0
-0.00010649 2.66677e-05 0
-0.00181451 0.0011497 0
-0.00207063 -0.000898114 0
-0.00126296 0.000263993 0
-0.00215633 0.000356619 0
-0.00238649 -0.000192916 0
-0.00187812 -0.000111045 0
-0.00203218 0.000127599 0
-0.00242236 -0.000842799 0
-0.0031749 -0.00117266 0
-0.00350749 -0.000379502 0
-0.00330789 2.01021e-06 0
-0.00396726 0.000494658 0
-0.0048197 9.57868e-05 0
-0.00425639 -0.000547059 0
-0.00332238 -0.000141736 0
-0.00416522 0.000773934 0
-0.00556246 0.000471745 0
-0.00393868 -0.000787834 0
-0.00231537 -0.000979958 0
-0.0025941 -0.00521585 0
-0.00258476 -0.00649712 0
-0.000805721 -0.00206784 0
-0.00241696 0.00815339 0
-0.00247878 0.00730432 0
0 0 0
0 0 0
0 0 0
-0.00100647 0.00187219 0
-0.000536193 0.000776977 0
-0.00100587 0.000247714 0
-0.00285723 0.000307308 0
-0.00196162 0.000441848 0
-0.00173329 -0.00021116 0
-0.00223968 -0.000108276 0
-0.00208828 0.000168557 0
-0.00210577 -0.000203125 0
-0.00291042 -0.000188573 0
-0.00353818 -0.000192077 0
-0.00439173 0.000824682 0
-0.00433835 0.00059098 0
-0.00349707 0.000135935 0
-0.00404351 -0.000535383 0
-0.00500379 -5.96933e-05 0
-0.00411951 0.000705742 0
-0.00279185 0.000375473 0
-0.00370537 -0.000923859 0
-0.00254274 -0.00455013 0
0.00106941 -0.00524178 0
-0.000970781 -0.0037024 0
-0.00149654 -0.00559117 0
0.000573088 0.0111125 0
0.000401234 0.0042925 0
-0.000141008 0.000187516 0
0 0 0
0 0 0
0.00111754 0.00172864 0
0.000548468 0.000451261 0
-0.00044702 0.00194441 0
0 0 0
0 0 0
0 0 0
0 0 0
0 0 0
0 0 0
0 0 0
-0.000927172 0.00113469 0
-0.000900203 0.000305089 0
0 0 0
0 0 0
0 0 0
0 0 0
0 0 0
0 0 0
0 0 0
-0.00174015 -0.00673854 0
-0.00291148 -0.00501949 0
-2.4167e-05 -0.00376517 0
0.00162534 -0.00552517 0
0.00282835 0.00606469 0
0.00357164 0.00914796 0
0.000516822 0.000784929 0
-0.000592368 -0.000742091 0
0 0 0
0 0 0
0.000905018 0.00235987 0
0.00113989 0.00175372 0
0 0 0
0 0 0
0 0 0
0 0 0
0 0 0
0 0 0
-0.00089235 0.00103719 0
-0.000523909 0.000693775 0
0.000371835 -0.000319009 0
0 0 0
0 0 0
0 0 0
0 0 0
0 0 0
0 0 0
-0.00128123 0.00148596 0
-0.00385628 -0.00243435 0
-0.00814416 -0.00363371 0
-0.00598648 -0.0136935 0
0.000438606 -0.00285673 0
-0.00151549 0.00383061 0
0.00105731 0.00917905 0
0.00504738 0.00150235 0
0.00208416 0.00126307 0
0 0 0
0 0 0
0.000879762 0.00132204 0
0.0011026 0.00164711 0
-0.00425586 0.00380183 0
-0.00759337 -0.00018635 0
-0.00564995 -0.00103618 0
-0.00562372 0.000937302 0
-0.00768468 0.000431242 0
-0.00673095 -0.000882441 0
-0.00461018 0.00129919 0
-0.00620558 0.000757437 0
-0.00673616 -0.000780137 0
-0.00531659 0.000124828 0
-0.00717545 0.00113448 0
-0.00804471 -0.000550407 0
-0.00581563 -0.00120619 0
-0.00560328 0.00118485 0
-0.00905078 0.00110725 0
-0.00630761 -0.000413583 0
-0.00411612 0.0019591 0
-0.00960906 -5.89661e-05 0
-0.012662 -0.016625 0
-0.00532756 -0.00948306 0
-0.0012792 0.00802531 0
-0.000225821 0.000312737 0
0.00112822 0.00155714 0
-7.4892e-05 0.00521621 0
0 0 0
0 0 0
0 0 0
-0.00236411 0.00638802 0
-0.00503806 0.00850024 0
-0.00534702 0.000187592 0
-0.0073382 -0.000915097 0
-0.00733683 0.000923533 0
-0.00527987 0.000383623 0
-0.00624901 -0.000967337 0
-0.00746055 0.00015687 0
-0.00513625 0.00103918 0
-0.00540196 0.000284656 0
-0.00800157 0.000300275 0
-0.00653985 0.00125151 0
-0.00542565 -0.00052371 0
-0.00800811 -0.000938575 0
-0.00776788 0.0011268 0
-0.00482171 0.00124276 0
-0.0057189 -0.00193647 0
-0.00704452 0.00181297 0
-0.00168686 -0.0018971 0
-0.00309318 -0.00813205 0
-0.00393719 -0.0237726 0
0.00161595 0.00762913 0
-0.00620667 0.00636813 0
-0.0142346 0.00190558 0
-0.00786832 0.00167475 0
-0.00106731 -0.00144163 0
0 0 0
0 0 0
0.00179087 0.00841371 0
0.00174404 0.00870263 0
0 0 0
0 0 0
0 0 0
0 0 0
0 0 0
0 0 0
0 0 0
0.000328582 0.00112472 0
0.000596411 0.000979442 0
0 0 0
0 0 0
0 0 0
0 0 0
0 0 0
0 0 0
0 0 0
-0.00172118 -0.00252394 0
0.00667702 -0.0147187 0
0.00705909 -0.0169707 0
-0.00208823 0.00771934 0
-0.0118475 0.0237093 0
-0.0117522 -0.00309088 0
-0.00503203 -0.00691272 0
-0.00277083 -0.00659723 0
0 0 0
0 0 0
-0.000249179 0.00546876 0
0.00370592 0.00637303 0
0.00418069 0.00482065 0
0.000649854 9.75296e-07 0
0.000332555 0.000295926 0
0 0 0
0 0 0
0 0 0
0 0 0
0 0 0
0.000874324 0.00168518 0
-0.000234111 0.000539849 0
-4.80534e-05 2.89208e-05 0
-0.000861064 -1.13137e-05 0
0 0 0
0 0 0
0 0 0
0 0 0
0 0 0
0.00013668 -0.0288811 0
-0.00136409 -0.00637934 0
-0.00654657 0.0202462 0
-0.00929003 0.0190233 0
-0.000871099 -0.00775687 0
0.00493877 -0.0104104 0
-0.00147292 -0.00102119 0
-0.00993394 -0.000511764 0
-0.00495659 -0.00222981 0
-0.000800512 0.00416666 0
-0.00286266 0.00682363 0
-0.00048412 0.0026818 0
0.00468074 0.00125114 0
0.00188975 0.00159291 0
0.00145625 -0.000691424 0
0.00480817 -0.00157731 0
0.00363004 0.00222331 0
0.000902226 -0.000193879 0
0.00270863 -0.00115474 0
0.00612558 0.000947158 0
0.00225069 0.00347891 0
0.00165993 -0.0014125 0
0.00587151 -0.00265336 0
0.00719011 0.00258102 0
-0.00108959 0.000936849 0
0.00416424 -0.00252436 0
0.00834831 -0.00121561 0
0.00224039 0.00494973 0
-0.00981162 -0.0175261 0
-0.00916456 -0.0184191 0
0.023233 0.0147876 0
0.0503159 0.00309054 0
0.0490238 -0.00421024 0
0.0354015 -0.00521155 0
0.0341031 0.00384039 0
0.0387368 -0.000795205 0
0.0338248 -0.00289824 0
0.0317955 0.00125563 0
0.039508 0.00381039 0
0.0423119 -0.00213775 0
0.0403237 0.000644204 0
0.0441345 0.00166552 0
0.0440083 -0.00138568 0
0.0417009 -0.000626067 0
0.0415311 0.00120976 0
0.0458353 0.000810263 0
0.042363 -0.00207113 0
0.0416322 0.000698041 0
0.0444472 0.00202939 0
0.0480648 -0.000857267 0
0.0412134 -0.00258972 0
0.0420353 0.00243445 0
0.0480364 0.00195169 0
0.0443531 -0.00459524 0
0.0398182 0.000897896 0
0.0446353 0.0037226 0
0.050566 -0.0018933 0
0.0157809 -0.0124914 0

