# vtk DataFile Version 4.0
SiwiRVisFile
ASCII
DATASET STRUCTURED_POINTS
DIMENSIONS 28 14 1
ORIGIN 0 0 0
SPACING 1 1 1
POINT_DATA 392

SCALARS flags double 1
LOOKUP_TABLE default
1
1
1
1
1
1
1
1
1
1
1
1
1
1
1
1
1
1
1
1
1
1
1
1
1
1
1
1
1
1
1
1
1
1
1
1
1
1
1
1
1
1
1
1
1
1
1
1
1
1
1
1
1
1
1
1
1
1
1
1
1
1
1
1
1
1
1
1
1
1
1
1
1
1
1
1
1
1
1
1
1
1
1
1
1
1
1
1
1
1
1
1
1
1
1
1
1
1
1
1
1
1
1
1
1
1
1
1
1
1
1
1
1
1
1
1
1
1
1
1
1
1
1
1
1
1
1
1
1
1
1
1
1
1
1
1
1
1
1
1
1
1
1
1
1
1
1
1
1
1
1
1
1
1
1
1
1
1
1
1
1
1
1
1
1
1
1
1
1
1
1
1
1
1
1
1
1
1
1
1
1
1
1
1
1
1
1
1
1
1
1
1
1
1
1
1
1
1
1
1
1
1
1
1
1
1
1
1
1
1
1
1
1
1
1
1
1
1
1
1
1
1
1
1
1
1
1
1
1
1
1
1
1
1
1
1
1
1
1
1
1
1
1
1
1
1
1
1
1
1
1
1
1
1
1
1
1
1
1
1
1
1
1
1
1
1
1
1
1
1
1
1
1
1
1
1
1
1
1
1
1
1
1
1
1
1
1
1
1
1
1
1
1
1
1
1
1
1
1
1
1
1
1
1
1
1
1
1
1
1
1
1
1
1
1
1
1
1
1
1
1
1
1
1
1
1
1
1
1
1
1
1
1
1
1
1
1
1
1
1
1
1
1
1
1
1
1
1
1
1
1
1
1
1
1
1
1
1
1
1
1
1
1
1
1
1
1
1
1
1
1
1
1
1
1
1
1
1
1
1
1
1
1
1
1
1
1
1
1
1
1
1

SCALARS density double 1
LOOKUP_TABLE default
0.987837
0.980741
0.979945
0.998752
0.998193
0.998091
0.998056
1.00046
1.00123
1.00056
1.00299
1.00558
1.00504
1.00505
1.00609
1.00603
1.00589
1.00715
1.00827
1.00903
1.0077
1.01236
1.01751
1.01487
1.01086
1.01578
1.01794
1.01194
0.98499
0.978596
0.982713
0.999478
0.995625
0.998557
0.999981
0.999238
1.00016
1.00209
1.00317
1.00414
1.00565
1.00586
1.00549
1.00543
1.00654
1.00761
1.00753
1.0087
1.00858
1.01253
1.01632
1.01494
1.01259
1.01485
1.01637
1.01367
0.976575
0.987045
0
0
0
0
0
0
0
0
0
0
1.00563
1.00562
1.00535
0
0
0
0
0
0
0
1.01031
1.01375
1.01927
1.01328
1.01036
1.01775
0.96728
0.969728
0
0
0
0
0
0
0
0
0
0
0
1.0057
1.00553
0
0
0
0
0
0
0
0
1.01449
1.01467
1.01475
1.01438
1.01424
0.975276
0.961985
0
0
0
1.00497
0.999898
1.00525
1.00813
1.00488
1.00456
1.00778
1.00848
1.00463
1.00506
1.00918
1.00724
1.00435
1.00936
1.01207
1.00757
1.01142
1.01829
1.01538
1.00937
1.01605
1.0194
1.01114
0.967623
0.970605
0
0
0
0.999851
1.00526
1.00733
1.00279
1.00486
1.00955
1.00598
1.00432
1.00793
1.00797
1.0047
1.00623
1.00942
1.00794
1.00743
1.01133
1.01471
1.01259
1.01418
1.01626
1.01386
1.01308
1.01678
0.963582
0.977936
0.972023
0
0
1.00485
1.00867
1.00158
0
0
0
0
0
0
0
1.00505
1.00647
0
0
0
0
0
0
0
1.02041
1.01332
1.00939
1.01781
0.974026
0.964259
0.966783
0.974568
0
0
1.00005
1.00125
0
0
0
0
0
0
1.00653
1.00688
1.00508
0
0
0
0
0
0
1.01408
1.01082
1.01619
1.01872
1.00993
0.973716
0.961013
0.9668
0.978223
0
0
0.996096
1.00292
1.00182
0.990927
0.999168
1.00535
1.00392
1.0035
1.00609
1.00759
1.00597
1.0038
1.00691
1.00977
1.00581
1.01013
1.01637
1.0159
1.00977
1.0149
1.01932
1.01215
0.961589
0.978468
0.972382
0.958973
0
0
0
0.996972
0.998988
0.996392
1.00009
1.00052
1.00418
1.00773
1.00508
1.00388
1.00722
1.00806
1.00414
1.00556
1.0106
1.01352
1.00936
1.0143
1.01943
1.012
1.00765
1.02262
0.967478
0.974913
0.969879
0.963236
0.970717
0
0
0.990961
0.992572
0
0
0
0
0
0
0
1.00481
1.00747
0
0
0
0
0
0
0
1.01482
1.00978
1.01647
0.97769
0.953839
0.965032
0.983718
0.968654
0
0
0.986475
0.982933
0.99325
0.993797
0.986779
0
0
0
0
0
1.00059
1.00534
1.00555
1.00182
0
0
0
0
0
1.02901
1.0045
0.964472
0.966977
0.969562
0.969653
0.969146
0.976515
0.985331
0.989371
0.989071
0.989104
0.987753
0.993754
0.994295
0.99389
0.995289
1.00081
1.00148
1.00028
1.00451
1.00668
1.00177
1.00409
1.01437
1.01002
1.00362
1.0192
1.01199
1.0119
0.958419
0.984727
0.971799
0.957447
0.973089
0.982218
0.980327
0.988058
0.992793
0.987126
0.988006
0.994347
0.992991
0.995489
0.996169
0.997026
1.00262
1.0053
1.00013
1.0016
1.01062
1.0069
1.00093
1.01281
1.01989
1.00768
0.996524
1.03471

VECTORS velocity double
-0.000507964 0.000509288 0
-0.00553261 0.00239623 0
-0.00840312 -4.9459e-06 0
-0.00803521 -0.000517861 0
-0.0070782 -0.000103265 0
-0.00772703 0.000494684 0
-0.00830003 -9.62106e-05 0
-0.00758539 -0.000380724 0
-0.00733102 0.000190819 0
-0.00799645 0.000259462 0
-0.00802542 -0.000200638 0
-0.00735838 -0.000262087 0
-0.00730414 0.000234187 0
-0.00687885 -0.000492472 0
-0.00610967 6.69812e-06 0
-0.00644344 0.000222265 0
-0.0064997 -0.00013513 0
-0.00616645 -4.96804e-05 0
-0.00634729 0.000206296 0
-0.00659234 -9.39728e-06 0
-0.00625125 -0.000202246 0
-0.00622953 0.000315164 0
-0.00632737 -0.00030695 0
-0.00421812 -0.00106868 0
-0.00227448 -0.00020482 0
-0.00171256 -2.79644e-05 0
-0.00101181 -0.00055657 0
-4.30285e-05 -7.16279e-06 0
-0.00246354 0.00542626 0
-0.00726918 0.00717695 0
-0.00708491 0.000774238 0
-0.00745555 -0.000631128 0
-0.00841034 -6.12676e-05 0
-0.00776263 0.000500437 0
-0.00718911 -8.87116e-05 0
-0.00790389 -0.000378644 0
-0.00815833 0.000187153 0
-0.0074927 0.000261665 0
-0.007464 -0.000251382 0
-0.00813065 -0.000368113 0
-0.00735827 -0.000845825 0
-0.00674453 -0.000743278 0
-0.00683274 -0.000456936 0
-0.00628746 0.000205062 0
-0.00623114 -0.000149502 0
-0.00656453 -9.21382e-05 0
-0.00638411 0.000171999 0
-0.00613832 -5.89797e-05 0
-0.00648033 -0.00017678 0
-0.00650128 0.00015134 0
-0.00563639 -0.00196793 0
-0.00501556 -0.00280263 0
-0.00423092 -0.00228115 0
-0.00226896 -0.00119708 0
-0.00146751 -0.00152222 0
-0.000551376 -0.00098043 0
-0.000676788 0.00960644 0
-0.00125717 0.00586578 0
0 0 0
0 0 0
0 0 0
0 0 0
0 0 0
0 0 0
0 0 0
0 0 0
0 0 0
0 0 0
-0.00082755 -0.000956935 0
-0.000795871 -0.00115441 0
5.63136e-05 -0.000623358 0
0 0 0
0 0 0
0 0 0
0 0 0
0 0 0
0 0 0
0 0 0
-0.00076748 -0.0012192 0
-0.00245495 -0.00180893 0
-0.00297557 -0.00391145 0
-0.00166836 -0.00209512 0
-0.00108881 -0.00143575 0
-0.000330357 -0.00218592 0
0.00184523 0.00837574 0
0.00193691 0.00713175 0
0 0 0
0 0 0
0 0 0
0 0 0
0 0 0
0 0 0
0 0 0
0 0 0
0 0 0
0 0 0
0 0 0
-0.000658005 -0.00159866 0
-0.0006402 -0.00117322 0
0 0 0
0 0 0
0 0 0
0 0 0
0 0 0
0 0 0
0 0 0
0 0 0
-0.00166399 -0.000320091 0
-0.0039115 -0.00279529 0
-0.00356638 -0.00376353 0
-0.000961374 -0.00393099 0
0.000640027 -0.00197164 0
0.000271696 0.00496372 0
0.000298124 0.0105079 0
0 0 0
0 0 0
0 0 0
-0.000107399 2.2225e-05 0
-0.00181411 0.00114591 0
-0.00207234 -0.00090284 0
-0.00126266 0.00026072 0
-0.00215753 0.000354194 0
-0.00238705 -0.000194428 0
-0.00187873 -0.000110291 0
-0.00203265 0.000131276 0
-0.00242315 -0.000837021 0
-0.00317493 -0.00116624 0
-0.00350866 -0.000374447 0
-0.00330843 8.71767e-06 0
-0.0039693 0.000503853 0
-0.00481901 0.000114439 0
-0.0042617 -0.000523912 0
-0.00331683 -0.000102931 0
-0.00417627 0.000819475 0
-0.00555123 0.000554446 0
-0.00394935 -0.000678914 0
-0.00229685 -0.000876345 0
-0.002618 -0.00512942 0
-0.00256376 -0.00641227 0
-0.000817283 -0.00197511 0
-0.00243541 0.00817262 0
-0.00246324 0.00733348 0
0 0 0
0 0 0
0 0 0
-0.00100841 0.00187758 0
-0.000534791 0.000781764 0
-0.00100779 0.000252152 0
-0.00285689 0.000310674 0
-0.001963 0.000444546 0
-0.00173351 -0.000209733 0
-0.00224057 -0.00010905 0
-0.00208866 0.00016503 0
-0.00210664 -0.000208382 0
-0.00291117 -0.00019383 0
-0.00353884 -0.000195598 0
-0.00439145 0.000820299 0
-0.00434192 0.000582043 0
-0.00349488 0.00011774 0
-0.00404954 -0.000557891 0
-0.00499744 -9.78168e-05 0
-0.0041348 0.000656859 0
-0.00276271 0.000287741 0
-0.00374047 -0.00103461 0
-0.00252084 -0.0046366 0
0.00103472 -0.00528745 0
-0.000925521 -0.00373475 0
-0.001547 -0.00562896 0
0.000577103 0.0110872 0
0.000404692 0.004258 0
-0.000155315 0.000115493 0
0 0 0
0 0 0
0.00111428 0.00172356 0
0.000552131 0.000446634 0
-0.000450556 0.00194076 0
0 0 0
0 0 0
0 0 0
0 0 0
0 0 0
0 0 0
0 0 0
-0.000927715 0.00113991 0
-0.000898247 0.000304475 0
0 0 0
0 0 0
0 0 0
0 0 0
0 0 0
0 0 0
0 0 0
-0.00166349 -0.0066767 0
-0.00298849 -0.005008 0
2.70227e-05 -0.00379542 0
0.0015977 -0.0055498 0
0.00282751 0.00610362 0
0.00357312 0.00919207 0
0.000518582 0.000863428 0
-0.000594145 -0.000625926 0
0 0 0
0 0 0
0.000913499 0.00236683 0
0.00113158 0.00175929 0
0 0 0
0 0 0
0 0 0
0 0 0
0 0 0
0 0 0
-0.000882677 0.00104545 0
-0.000536816 0.000688312 0
0.000384568 -0.000312016 0
0 0 0
0 0 0
0 0 0
0 0 0
0 0 0
0 0 0
-0.0014005 0.00137176 0
-0.00376498 -0.00247728 0
-0.00822977 -0.00361728 0
-0.00592614 -0.0135896 0
0.000366845 -0.00274261 0
-0.0015009 0.00378573 0
0.00104821 0.00911146 0
0.00505649 0.00140721 0
0.00208237 0.00113786 0
0 0 0
0 0 0
0.000884947 0.00131471 0
0.00109747 0.00164015 0
-0.00424847 0.00379879 0
-0.00760574 -0.000198719 0
-0.00564387 -0.00103477 0
-0.00562739 0.000941746 0
-0.00768825 0.00043001 0
-0.0067268 -0.000878017 0
-0.00462118 0.00128904 0
-0.00619762 0.000764941 0
-0.00673655 -0.0007806 0
-0.00534407 0.000109827 0
-0.00712639 0.00115092 0
-0.00812006 -0.000537444 0
-0.00571603 -0.00107551 0
-0.00573677 0.00122494 0
-0.00891606 0.00124387 0
-0.00642658 -0.000334127 0
-0.00399895 0.00202059 0
-0.0096613 -0.000110125 0
-0.0127449 -0.0167287 0
-0.0052245 -0.00969279 0
-0.00126239 0.00808097 0
-0.00025538 0.000402028 0
0.0011689 0.0016764 0
-9.89787e-05 0.00538163 0
0 0 0
0 0 0
0 0 0
-0.0023701 0.00640197 0
-0.00502882 0.0084993 0
-0.00536361 0.000203458 0
-0.00732836 -0.000916124 0
-0.00734163 0.000919459 0
-0.00528463 0.00038527 0
-0.00624187 -0.000972033 0
-0.00747011 0.000166585 0
-0.00513358 0.0010358 0
-0.00539789 0.000254016 0
-0.00802977 0.000353304 0
-0.00649764 0.00123405 0
-0.00549954 -0.000534769 0
-0.00790782 -0.00106251 0
-0.0078835 0.00108505 0
-0.00470727 0.00108611 0
-0.00579336 -0.00199605 0
-0.00703072 0.00170379 0
-0.0016123 -0.00190124 0
-0.00324581 -0.00801011 0
-0.00382807 -0.023471 0
0.00174258 0.00755248 0
-0.00629852 0.00627877 0
-0.0141971 0.00176975 0
-0.00788476 0.0014763 0
-0.00104049 -0.00166224 0
0 0 0
0 0 0
0.00173244 0.00837993 0
0.00180969 0.00870317 0
0 0 0
0 0 0
0 0 0
0 0 0
0 0 0
0 0 0
0 0 0
0.000492161 0.0011906 0
0.000458232 0.000896802 0
0 0 0
0 0 0
0 0 0
0 0 0
0 0 0
0 0 0
0 0 0
-0.00137239 -0.00247227 0
0.00614537 -0.0148168 0
0.00800876 -0.0173782 0
-0.00199162 0.00782427 0
-0.0118865 0.0238229 0
-0.0117191 -0.00290098 0
-0.00502404 -0.0067409 0
-0.00275476 -0.00644352 0
0 0 0
0 0 0
-0.000258022 0.00552746 0
0.00374165 0.00642794 0
0.00412555 0.00481535 0
0.000762408 0.000170168 0
0.000176574 0.000187528 0
0 0 0
0 0 0
0 0 0
0 0 0
0 0 0
0.000475272 0.0016033 0
0.000178033 0.00066359 0
-0.000550579 7.74583e-06 0
-0.000307241 -0.000174266 0
0 0 0
0 0 0
0 0 0
0 0 0
0 0 0
-0.00078635 -0.0287788 0
-0.00045188 -0.00588454 0
-0.0063404 0.0200824 0
-0.00933359 0.0188026 0
-0.000864273 -0.00796895 0
0.0049766 -0.0105326 0
-0.00152624 -0.00114952 0
-0.00987224 -0.000588695 0
-0.00507523 -0.0025771 0
-0.000663364 0.00414384 0
-0.0029598 0.00667658 0
-0.000388879 0.00271334 0
0.00462464 0.00100477 0
0.00187473 0.00180247 0
0.00153188 -0.00107042 0
0.0047101 -0.000983595 0
0.00378459 0.00161211 0
0.000734228 0.000418555 0
0.00284652 -0.00161847 0
0.00589935 0.00132571 0
0.00266954 0.0030971 0
0.00116655 -0.00121721 0
0.00650771 -0.00266076 0
0.00627481 0.00240808 0
-6.42841e-05 0.00153485 0
0.00321522 -0.00384927 0
0.00914926 1.27992e-05 0
0.00250443 0.00429101 0
-0.0110524 -0.017447 0
-0.00808555 -0.0184894 0
0.0232963 0.015149 0
0.0503517 0.00335041 0
0.0490246 -0.0040458 0
0.0353587 -0.0051108 0
0.0341491 0.00403938 0
0.0386948 -0.000673887 0
0.033895 -0.00265432 0
0.0316926 0.00125617 0
0.0396238 0.00401757 0
0.0421814 -0.00213957 0
0.0405231 0.00086824 0
0.0438673 0.0014826 0
0.0443809 -0.0011368 0
0.0412032 -0.0009821 0
0.0421299 0.00164533 0
0.0451787 0.000352937 0
0.0430673 -0.00173805 0
0.0409217 0.000357924 0
0.0451532 0.00251133 0
0.0473821 -0.00113783 0
0.0417998 -0.00250811 0
0.0417245 0.00254632 0
0.0480628 0.00159326 0
0.0447838 -0.00387026 0
0.0388502 0.000105664 0
0.045495 0.00433345 0
0.048933 -0.00207413 0
0.0236023 -0.0152887 0

