# vtk DataFile Version 4.0
SiwiRVisFile
ASCII
DATASET STRUCTURED_POINTS
DIMENSIONS 28 14 1
ORIGIN 0 0 0
SPACING 1 1 1
POINT_DATA 392

SCALARS flags double 1
LOOKUP_TABLE default
1
1
1
1
1
1
1
1
1
1
1
1
1
1
1
1
1
1
1
1
1
1
1
1
1
1
1
1
1
1
1
1
1
1
1
1
1
1
1
1
1
1
1
1
1
1
1
1
1
1
1
1
1
1
1
1
1
1
1
1
1
1
1
1
1
1
1
1
1
1
1
1
1
1
1
1
1
1
1
1
1
1
1
1
1
1
1
1
1
1
1
1
1
1
1
1
1
1
1
1
1
1
1
1
1
1
1
1
1
1
1
1
1
1
1
1
1
1
1
1
1
1
1
1
1
1
1
1
1
1
1
1
1
1
1
1
1
1
1
1
1
1
1
1
1
1
1
1
1
1
1
1
1
1
1
1
1
1
1
1
1
1
1
1
1
1
1
1
1
1
1
1
1
1
1
1
1
1
1
1
1
1
1
1
1
1
1
1
1
1
1
1
1
1
1
1
1
1
1
1
1
1
1
1
1
1
1
1
1
1
1
1
1
1
1
1
1
1
1
1
1
1
1
1
1
1
1
1
1
1
1
1
1
1
1
1
1
1
1
1
1
1
1
1
1
1
1
1
1
1
1
1
1
1
1
1
1
1
1
1
1
1
1
1
1
1
1
1
1
1
1
1
1
1
1
1
1
1
1
1
1
1
1
1
1
1
1
1
1
1
1
1
1
1
1
1
1
1
1
1
1
1
1
1
1
1
1
1
1
1
1
1
1
1
1
1
1
1
1
1
1
1
1
1
1
1
1
1
1
1
1
1
1
1
1
1
1
1
1
1
1
1
1
1
1
1
1
1
1
1
1
1
1
1
1
1
1
1
1
1
1
1
1
1
1
1
1
1
1
1
1
1
1
1
1
1
1
1
1
1
1
1
1
1
1
1
1
1
1
1
1
1

SCALARS density double 1
LOOKUP_TABLE default
0.987837
0.980741
0.979945
0.998752
0.998193
0.998091
0.998056
1.00046
1.00123
1.00056
1.00299
1.00558
1.00504
1.00505
1.00609
1.00603
1.00589
1.00715
1.00827
1.00903
1.0077
1.01236
1.01751
1.01487
1.01086
1.01578
1.01794
1.01194
0.98499
0.978596
0.982713
0.999478
0.995625
0.998557
0.999981
0.999238
1.00016
1.00209
1.00317
1.00414
1.00565
1.00586
1.00549
1.00543
1.00654
1.00761
1.00753
1.0087
1.00858
1.01253
1.01632
1.01494
1.01259
1.01485
1.01637
1.01367
0.976575
0.987045
0
0
0
0
0
0
0
0
0
0
1.00563
1.00562
1.00535
0
0
0
0
0
0
0
1.01031
1.01375
1.01927
1.01328
1.01036
1.01775
0.96728
0.969728
0
0
0
0
0
0
0
0
0
0
0
1.0057
1.00553
0
0
0
0
0
0
0
0
1.01449
1.01467
1.01475
1.01438
1.01424
0.975276
0.961985
0
0
0
1.00497
0.999898
1.00525
1.00813
1.00488
1.00456
1.00778
1.00848
1.00463
1.00506
1.00918
1.00724
1.00435
1.00936
1.01207
1.00757
1.01142
1.01829
1.01538
1.00937
1.01605
1.0194
1.01114
0.967623
0.970605
0
0
0
0.999851
1.00526
1.00733
1.00279
1.00486
1.00955
1.00598
1.00432
1.00793
1.00797
1.0047
1.00623
1.00942
1.00794
1.00743
1.01133
1.01471
1.01259
1.01418
1.01626
1.01386
1.01308
1.01678
0.963582
0.977936
0.972023
0
0
1.00485
1.00867
1.00158
0
0
0
0
0
0
0
1.00505
1.00647
0
0
0
0
0
0
0
1.02041
1.01332
1.00939
1.01781
0.974026
0.964259
0.966783
0.974568
0
0
1.00005
1.00125
0
0
0
0
0
0
1.00653
1.00688
1.00508
0
0
0
0
0
0
1.01408
1.01082
1.01619
1.01872
1.00993
0.973716
0.961013
0.9668
0.978223
0
0
0.996096
1.00292
1.00182
0.990927
0.999168
1.00535
1.00392
1.0035
1.00609
1.00759
1.00597
1.0038
1.00691
1.00977
1.00581
1.01013
1.01637
1.0159
1.00977
1.0149
1.01932
1.01215
0.961589
0.978468
0.972382
0.958973
0
0
0
0.996972
0.998988
0.996392
1.00009
1.00052
1.00418
1.00773
1.00508
1.00388
1.00722
1.00806
1.00414
1.00556
1.0106
1.01352
1.00936
1.0143
1.01943
1.012
1.00765
1.02262
0.967478
0.974913
0.969879
0.963236
0.970717
0
0
0.990961
0.992572
0
0
0
0
0
0
0
1.00481
1.00747
0
0
0
0
0
0
0
1.01482
1.00978
1.01647
0.97769
0.953839
0.965032
0.983718
0.968654
0
0
0.986475
0.982933
0.99325
0.993797
0.986779
0
0
0
0
0
1.00059
1.00534
1.00555
1.00182
0
0
0
0
0
1.02901
1.0045
0.964472
0.966977
0.969562
0.969653
0.969146
0.976515
0.985331
0.989371
0.989071
0.989104
0.987753
0.993754
0.994295
0.99389
0.995289
1.00081
1.00148
1.00028
1.00451
1.00668
1.00177
1.00409
1.01437
1.01002
1.00362
1.0192
1.01199
1.0119
0.958419
0.984727
0.971799
0.957447
0.973089
0.982218
0.980327
0.988058
0.992793
0.987126
0.988006
0.994347
0.992991
0.995489
0.996169
0.997026
1.00262
1.0053
1.00013
1.0016
1.01062
1.0069
1.00093
1.01281
1.01989
1.00768
0.996524
1.03471

VECTORS velocity double
-0.000507413 0.000507625 0
-0.00553291 0.00239445 0
-0.00840311 -7.89122e-06 0
-0.00803534 -0.000521851 0
-0.00707807 -0.000107163 0
-0.00772707 0.000491036 0
-0.00830006 -9.9764e-05 0
-0.0075854 -0.000384094 0
-0.00733098 0.00018781 0
-0.00799648 0.000256773 0
-0.00802543 -0.000203069 0
-0.00735837 -0.000264202 0
-0.00730414 0.000232444 0
-0.00687887 -0.000493933 0
-0.00610965 5.63886e-06 0
-0.00644343 0.000221715 0
-0.0064997 -0.000135187 0
-0.00616643 -4.93105e-05 0
-0.00634731 0.000207021 0
-0.00659231 -8.31836e-06 0
-0.00625127 -0.000200887 0
-0.00622952 0.000316741 0
-0.00632736 -0.000305142 0
-0.00421806 -0.00106656 0
-0.00227457 -0.000202657 0
-0.00171251 -2.56709e-05 0
-0.00101182 -0.000554177 0
-4.30479e-05 -4.88687e-06 0
-0.00246338 0.00542791 0
-0.00726936 0.00717904 0
-0.00708467 0.000777255 0
-0.00745576 -0.000627403 0
-0.00841031 -5.74279e-05 0
-0.00776268 0.000504266 0
-0.00718904 -8.517e-05 0
-0.00790392 -0.000375403 0
-0.00815836 0.000190205 0
-0.00749269 0.000264432 0
-0.00746398 -0.000248999 0
-0.00813066 -0.000366072 0
-0.00735828 -0.000844083 0
-0.00674454 -0.000741856 0
-0.00683275 -0.000455853 0
-0.00628746 0.000205632 0
-0.00623114 -0.000149437 0
-0.00656452 -9.25069e-05 0
-0.00638412 0.000171261 0
-0.0061383 -6.00556e-05 0
-0.00648034 -0.000178117 0
-0.00650125 0.000149736 0
-0.00563642 -0.00196965 0
-0.00501553 -0.00280454 0
-0.00423096 -0.00228323 0
-0.00226892 -0.0011993 0
-0.00146754 -0.00152448 0
-0.000551322 -0.000982679 0
-0.000676119 0.00960464 0
-0.00125767 0.00586348 0
0 0 0
0 0 0
0 0 0
0 0 0
0 0 0
0 0 0
0 0 0
0 0 0
0 0 0
0 0 0
-0.000827606 -0.000958641 0
-0.000795817 -0.00115583 0
5.62642e-05 -0.000624458 0
0 0 0
0 0 0
0 0 0
0 0 0
0 0 0
0 0 0
0 0 0
-0.000767505 -0.00121759 0
-0.00245492 -0.00180724 0
-0.0029756 -0.00390956 0
-0.00166829 -0.00209307 0
-0.00108886 -0.00143364 0
-0.000330366 -0.00218383 0
0.00184432 0.00837765 0
0.00193789 0.00713378 0
0 0 0
0 0 0
0 0 0
0 0 0
0 0 0
0 0 0
0 0 0
0 0 0
0 0 0
0 0 0
0 0 0
-0.000657925 -0.00159731 0
-0.000640307 -0.00117216 0
0 0 0
0 0 0
0 0 0
0 0 0
0 0 0
0 0 0
0 0 0
0 0 0
-0.00166396 -0.000321644 0
-0.00391156 -0.00279692 0
-0.00356631 -0.00376536 0
-0.000961442 -0.00393294 0
0.000640111 -0.00197352 0
0.00027241 0.00496202 0
0.00029728 0.0105063 0
0 0 0
0 0 0
0 0 0
-0.00010773 2.17043e-05 0
-0.00181377 0.0011454 0
-0.00207267 -0.000903591 0
-0.00126237 0.000259739 0
-0.00215777 0.000352843 0
-0.0023869 -0.000196024 0
-0.00187882 -0.000111851 0
-0.0020326 0.000129823 0
-0.00242319 -0.000838284 0
-0.00317491 -0.00116717 0
-0.00350866 -0.000374924 0
-0.00330844 8.54613e-06 0
-0.00396925 0.000503892 0
-0.00481909 0.000114632 0
-0.00426158 -0.000523377 0
-0.00331697 -0.00010222 0
-0.00417612 0.000820473 0
-0.00555134 0.000555715 0
-0.00394924 -0.00067748 0
-0.00229692 -0.000874851 0
-0.00261796 -0.00512783 0
-0.00256379 -0.00641064 0
-0.00081726 -0.00197337 0
-0.00243577 0.00817398 0
-0.00246296 0.00733469 0
0 0 0
0 0 0
0 0 0
-0.00100876 0.0018781 0
-0.000534465 0.000782306 0
-0.00100811 0.000252831 0
-0.0028566 0.000311649 0
-0.00196327 0.000445933 0
-0.0017333 -0.00020816 0
-0.00224071 -0.0001075 0
-0.00208859 0.00016651 0
-0.00210664 -0.000207153 0
-0.00291118 -0.000193001 0
-0.00353884 -0.000195206 0
-0.00439148 0.000820449 0
-0.00434188 0.000582003 0
-0.00349496 0.000117545 0
-0.00404944 -0.0005584 0
-0.00499755 -9.85186e-05 0
-0.00413465 0.000655794 0
-0.00276284 0.000286462 0
-0.00374039 -0.00103589 0
-0.0025209 -0.00463793 0
0.00103474 -0.00528882 0
-0.000925589 -0.00373611 0
-0.00154682 -0.00563048 0
0.000577445 0.0110859 0
0.000404599 0.00425711 0
-0.000155567 0.000114826 0
0 0 0
0 0 0
0.00111395 0.00172305 0
0.000552461 0.000446123 0
-0.000450879 0.00194017 0
0 0 0
0 0 0
0 0 0
0 0 0
0 0 0
0 0 0
0 0 0
-0.000927748 0.0011396 0
-0.000898245 0.000304387 0
0 0 0
0 0 0
0 0 0
0 0 0
0 0 0
0 0 0
0 0 0
-0.00166356 -0.00667561 0
-0.00298835 -0.00500683 0
2.69743e-05 -0.00379414 0
0.00159763 -0.00554858 0
0.00282719 0.00610479 0
0.00357336 0.0091928 0
0.000518466 0.000863986 0
-0.0005941 -0.000625795 0
0 0 0
0 0 0
0.000913873 0.00236732 0
0.00113118 0.00175978 0
0 0 0
0 0 0
0 0 0
0 0 0
0 0 0
0 0 0
-0.000882688 0.00104572 0
-0.000536799 0.000688509 0
0.000384558 -0.000312044 0
0 0 0
0 0 0
0 0 0
0 0 0
0 0 0
0 0 0
-0.00140037 0.00137086 0
-0.00376512 -0.00247825 0
-0.00822964 -0.00361827 0
-0.0059263 -0.0135907 0
0.000366982 -0.00274372 0
-0.00150086 0.00378484 0
0.00104823 0.00911076 0
0.00505631 0.00140681 0
0.00208263 0.0011378 0
0 0 0
0 0 0
0.000885308 0.0013142 0
0.00109717 0.00163973 0
-0.00424822 0.0037985 0
-0.00760595 -0.000199146 0
-0.00564373 -0.00103535 0
-0.00562748 0.000941218 0
-0.0076882 0.000429582 0
-0.00672684 -0.00087838 0
-0.00462116 0.00128879 0
-0.00619763 0.000764871 0
-0.00673657 -0.000780459 0
-0.00534403 0.000110322 0
-0.00712644 0.00115172 0
-0.00811994 -0.000536392 0
-0.00571615 -0.00107451 0
-0.00573668 0.00122593 0
-0.00891615 0.00124482 0
-0.00642648 -0.000333187 0
-0.00399906 0.00202158 0
-0.00966117 -0.000109226 0
-0.012745 -0.016728 0
-0.00522458 -0.00969175 0
-0.00126276 0.00808162 0
-0.000255145 0.000402547 0
0.00116879 0.00167662 0
-9.89134e-05 0.00538159 0
0 0 0
0 0 0
0 0 0
-0.00237049 0.00640232 0
-0.00502852 0.00849959 0
-0.00536381 0.000203857 0
-0.00732824 -0.000915609 0
-0.00734174 0.000920033 0
-0.00528454 0.000385725 0
-0.00624193 -0.000971698 0
-0.00747009 0.000166826 0
-0.00513358 0.0010358 0
-0.00539793 0.000253817 0
-0.00802972 0.000352798 0
-0.00649767 0.00123317 0
-0.00549949 -0.000535769 0
-0.00790792 -0.00106341 0
-0.00788335 0.00108395 0
-0.0047074 0.00108507 0
-0.00579334 -0.00199691 0
-0.00703062 0.00170271 0
-0.00161242 -0.00190214 0
-0.00324594 -0.00801071 0
-0.00382774 -0.0234717 0
0.00174251 0.00755199 0
-0.00629838 0.00627853 0
-0.0141973 0.00176965 0
-0.00788465 0.00147649 0
-0.00104054 -0.00166191 0
0 0 0
0 0 0
0.00173221 0.00837977 0
0.00180995 0.00870298 0
0 0 0
0 0 0
0 0 0
0 0 0
0 0 0
0 0 0
0 0 0
0.000492197 0.00119079 0
0.000458065 0.000897386 0
0 0 0
0 0 0
0 0 0
0 0 0
0 0 0
0 0 0
0 0 0
-0.00137194 -0.00247133 0
0.00614538 -0.0148161 0
0.00800847 -0.0173778 0
-0.00199198 0.00782456 0
-0.0118863 0.0238231 0
-0.0117191 -0.00290098 0
-0.00502404 -0.00674107 0
-0.0027548 -0.00644378 0
0 0 0
0 0 0
-0.000258303 0.00552738 0
0.00374185 0.00642791 0
0.00412531 0.00481519 0
0.000762641 0.000169867 0
0.000176276 0.000187232 0
0 0 0
0 0 0
0 0 0
0 0 0
0 0 0
0.000474972 0.00160261 0
0.000178041 0.000662565 0
-0.000550455 6.7021e-06 0
-0.000307537 -0.000175097 0
0 0 0
0 0 0
0 0 0
0 0 0
0 0 0
-0.000786887 -0.0287794 0
-0.00045153 -0.00588511 0
-0.00634044 0.0200823 0
-0.00933353 0.0188024 0
-0.000864286 -0.00796894 0
0.00497659 -0.0105326 0
-0.00152624 -0.0011493 0
-0.00987233 -0.000588578 0
-0.00507504 -0.00257648 0
-0.000663571 0.00414404 0
-0.00295963 0.00667682 0
-0.000389044 0.00271352 0
0.00462477 0.00100511 0
0.00187464 0.00180274 0
0.00153194 -0.00107007 0
0.00471009 -0.00098326 0
0.00378458 0.00161257 0
0.000734278 0.000418998 0
0.00284659 -0.00161781 0
0.0058993 0.00132643 0
0.00266945 0.00309812 0
0.00116651 -0.0012162 0
0.00650772 -0.00265996 0
0.00627472 0.00240851 0
-6.40654e-05 0.00153573 0
0.00321521 -0.00384812 0
0.00914902 1.35025e-05 0
0.00250471 0.00429197 0
-0.0110526 -0.0174463 0
-0.0080857 -0.0184889 0
0.0232963 0.0151491 0
0.0503518 0.00335057 0
0.0490245 -0.00404581 0
0.0353589 -0.00511081 0
0.034149 0.00403904 0
0.0386949 -0.000674111 0
0.0338948 -0.00265481 0
0.0316927 0.00125595 0
0.0396237 0.00401721 0
0.0421815 -0.00213978 0
0.0405231 0.00086781 0
0.0438673 0.00148226 0
0.0443809 -0.00113715 0
0.0412032 -0.000982474 0
0.0421298 0.0016448 0
0.0451787 0.000352497 0
0.0430673 -0.00173858 0
0.0409217 0.000357172 0
0.0451531 0.00251017 0
0.0473822 -0.00113876 0
0.0417998 -0.00250887 0
0.0417246 0.00254557 0
0.0480627 0.00159228 0
0.0447839 -0.00387102 0
0.0388502 0.000104882 0
0.0454948 0.00433235 0
0.0489329 -0.00207473 0
0.0236038 -0.0152894 0

