# vtk DataFile Version 4.0
SiwiRVisFile
ASCII
DATASET STRUCTURED_POINTS
DIMENSIONS 28 14 1
ORIGIN 0 0 0
SPACING 1 1 1
POINT_DATA 392

SCALARS flags double 1
LOOKUP_TABLE default
1
1
1
1
1
1
1
1
1
1
1
1
1
1
1
1
1
1
1
1
1
1
1
1
1
1
1
1
1
1
1
1
1
1
1
1
1
1
1
1
1
1
1
1
1
1
1
1
1
1
1
1
1
1
1
1
1
1
1
1
1
1
1
1
1
1
1
1
1
1
1
1
1
1
1
1
1
1
1
1
1
1
1
1
1
1
1
1
1
1
1
1
1
1
1
1
1
1
1
1
1
1
1
1
1
1
1
1
1
1
1
1
1
1
1
1
1
1
1
1
1
1
1
1
1
1
1
1
1
1
1
1
1
1
1
1
1
1
1
1
1
1
1
1
1
1
1
1
1
1
1
1
1
1
1
1
1
1
1
1
1
1
1
1
1
1
1
1
1
1
1
1
1
1
1
1
1
1
1
1
1
1
1
1
1
1
1
1
1
1
1
1
1
1
1
1
1
1
1
1
1
1
1
1
1
1
1
1
1
1
1
1
1
1
1
1
1
1
1
1
1
1
1
1
1
1
1
1
1
1
1
1
1
1
1
1
1
1
1
1
1
1
1
1
1
1
1
1
1
1
1
1
1
1
1
1
1
1
1
1
1
1
1
1
1
1
1
1
1
1
1
1
1
1
1
1
1
1
1
1
1
1
1
1
1
1
1
1
1
1
1
1
1
1
1
1
1
1
1
1
1
1
1
1
1
1
1
1
1
1
1
1
1
1
1
1
1
1
1
1
1
1
1
1
1
1
1
1
1
1
1
1
1
1
1
1
1
1
1
1
1
1
1
1
1
1
1
1
1
1
1
1
1
1
1
1
1
1
1
1
1
1
1
1
1
1
1
1
1
1
1
1
1
1
1
1
1
1
1
1
1
1
1
1
1
1
1
1
1
1
1
1

SCALARS density double 1
LOOKUP_TABLE default
0.987837
0.980741
0.979945
0.998752
0.998193
0.998091
0.998056
1.00046
1.00123
1.00056
1.00299
1.00558
1.00504
1.00505
1.00609
1.00603
1.00589
1.00715
1.00827
1.00903
1.0077
1.01236
1.01751
1.01487
1.01086
1.01578
1.01794
1.01194
0.98499
0.978596
0.982713
0.999478
0.995625
0.998557
0.999981
0.999238
1.00016
1.00209
1.00317
1.00414
1.00565
1.00586
1.00549
1.00543
1.00654
1.00761
1.00753
1.0087
1.00858
1.01253
1.01632
1.01494
1.01259
1.01485
1.01637
1.01367
0.976575
0.987046
0
0
0
0
0
0
0
0
0
0
1.00563
1.00562
1.00535
0
0
0
0
0
0
0
1.01031
1.01375
1.01927
1.01328
1.01036
1.01775
0.96728
0.969727
0
0
0
0
0
0
0
0
0
0
0
1.0057
1.00553
0
0
0
0
0
0
0
0
1.01449
1.01467
1.01475
1.01438
1.01424
0.975276
0.961985
0
0
0
1.00497
0.999898
1.00525
1.00813
1.00488
1.00456
1.00778
1.00848
1.00463
1.00506
1.00918
1.00724
1.00435
1.00936
1.01207
1.00757
1.01142
1.01829
1.01538
1.00937
1.01605
1.0194
1.01114
0.967623
0.970605
0
0
0
0.999851
1.00526
1.00733
1.00279
1.00486
1.00955
1.00598
1.00432
1.00793
1.00797
1.0047
1.00623
1.00942
1.00794
1.00743
1.01133
1.01471
1.01259
1.01418
1.01626
1.01386
1.01308
1.01678
0.963582
0.977937
0.972023
0
0
1.00485
1.00867
1.00158
0
0
0
0
0
0
0
1.00505
1.00647
0
0
0
0
0
0
0
1.02041
1.01332
1.00939
1.01781
0.974026
0.964259
0.966783
0.974568
0
0
1.00005
1.00125
0
0
0
0
0
0
1.00653
1.00688
1.00508
0
0
0
0
0
0
1.01408
1.01082
1.01619
1.01872
1.00993
0.973716
0.961013
0.9668
0.978223
0
0
0.996096
1.00292
1.00182
0.990927
0.999168
1.00535
1.00392
1.0035
1.00609
1.00759
1.00597
1.0038
1.00691
1.00977
1.00581
1.01013
1.01637
1.0159
1.00977
1.0149
1.01932
1.01215
0.961589
0.978468
0.972382
0.958973
0
0
0
0.996972
0.998988
0.996392
1.00009
1.00052
1.00418
1.00773
1.00508
1.00388
1.00722
1.00806
1.00414
1.00556
1.0106
1.01352
1.00936
1.0143
1.01943
1.012
1.00765
1.02262
0.967478
0.974914
0.969879
0.963236
0.970717
0
0
0.990961
0.992572
0
0
0
0
0
0
0
1.00481
1.00747
0
0
0
0
0
0
0
1.01482
1.00978
1.01647
0.977689
0.953839
0.965032
0.983718
0.968654
0
0
0.986475
0.982933
0.99325
0.993797
0.986779
0
0
0
0
0
1.00059
1.00534
1.00555
1.00182
0
0
0
0
0
1.02901
1.0045
0.964472
0.966977
0.969562
0.969652
0.969146
0.976515
0.985331
0.989371
0.989071
0.989104
0.987753
0.993754
0.994295
0.99389
0.995289
1.00081
1.00148
1.00028
1.00451
1.00668
1.00177
1.00409
1.01437
1.01002
1.00362
1.0192
1.01199
1.0119
0.958419
0.984727
0.971799
0.957447
0.973089
0.982218
0.980327
0.988058
0.992793
0.987126
0.988006
0.994347
0.992991
0.995489
0.996169
0.997026
1.00262
1.0053
1.00013
1.0016
1.01062
1.0069
1.00093
1.01281
1.01989
1.00768
0.996523
1.03471

VECTORS velocity double
-0.000510122 0.000515839 0
-0.00553139 0.00240287 0
-0.00840323 5.46002e-06 0
-0.00803467 -0.000504212 0
-0.00707872 -9.05851e-05 0
-0.00772683 0.000505961 0
-0.00829998 -8.583e-05 0
-0.00758536 -0.000371443 0
-0.00733115 0.000198557 0
-0.00799638 0.00026586 0
-0.00802539 -0.000195379 0
-0.00735841 -0.00025807 0
-0.00730414 0.000236944 0
-0.00687878 -0.000490832 0
-0.00610969 6.77161e-06 0
-0.0064435 0.000220243 0
-0.0064997 -0.000139266 0
-0.00616648 -5.51219e-05 0
-0.00634721 0.000199978 0
-0.00659249 -1.66728e-05 0
-0.00625116 -0.000210158 0
-0.00622958 0.000306938 0
-0.00632744 -0.000315763 0
-0.00421839 -0.00107854 0
-0.0022741 -0.000214445 0
-0.00171275 -3.78641e-05 0
-0.00101175 -0.000566786 0
-4.295e-05 -1.68912e-05 0
-0.00246416 0.00541973 0
-0.00726846 0.00716906 0
-0.0070859 0.000763584 0
-0.00745469 -0.000643857 0
-0.00841054 -7.37499e-05 0
-0.00776239 0.000488591 0
-0.00718939 -9.90619e-05 0
-0.00790378 -0.000387568 0
-0.00815828 0.000179305 0
-0.00749272 0.000255077 0
-0.00746406 -0.000256532 0
-0.00813064 -0.000371961 0
-0.00735821 -0.000848631 0
-0.00674451 -0.000744938 0
-0.00683274 -0.000457243 0
-0.00628746 0.000207031 0
-0.00623122 -0.000145471 0
-0.00656457 -8.67331e-05 0
-0.00638408 0.000178429 0
-0.00613836 -5.17208e-05 0
-0.00648026 -0.000169011 0
-0.0065014 0.000159678 0
-0.00563625 -0.00195954 0
-0.00501572 -0.00279382 0
-0.00423073 -0.00227195 0
-0.00226908 -0.00118759 0
-0.0014674 -0.00151267 0
-0.000551555 -0.000970896 0
-0.000679627 0.00961368 0
-0.00125506 0.00587472 0
0 0 0
0 0 0
0 0 0
0 0 0
0 0 0
0 0 0
0 0 0
0 0 0
0 0 0
0 0 0
-0.000827356 -0.00095408 0
-0.000796129 -0.00115252 0
5.6572e-05 -0.000622668 0
0 0 0
0 0 0
0 0 0
0 0 0
0 0 0
0 0 0
0 0 0
-0.00076744 -0.00122702 0
-0.00245504 -0.00181668 0
-0.00297545 -0.0039197 0
-0.00166863 -0.0021038 0
-0.00108861 -0.00144458 0
-0.000330337 -0.00219466 0
0.00184867 0.00836783 0
0.00193323 0.00712356 0
0 0 0
0 0 0
0 0 0
0 0 0
0 0 0
0 0 0
0 0 0
0 0 0
0 0 0
0 0 0
0 0 0
-0.00065827 -0.00160066 0
-0.000639861 -0.0011742 0
0 0 0
0 0 0
0 0 0
0 0 0
0 0 0
0 0 0
0 0 0
0 0 0
-0.00166402 -0.000313039 0
-0.0039113 -0.00278827 0
-0.00356661 -0.00375595 0
-0.000961155 -0.00392303 0
0.000639792 -0.00196399 0
0.000268695 0.00497102 0
0.000301681 0.0105148 0
0 0 0
0 0 0
0 0 0
-0.00010638 2.45037e-05 0
-0.00181515 0.00114809 0
-0.00207131 -0.000900006 0
-0.00126355 0.000264043 0
-0.00215681 0.000358331 0
-0.00238743 -0.000189854 0
-0.00187862 -0.000106386 0
-0.00203266 0.000134312 0
-0.00242318 -0.000835062 0
-0.00317482 -0.00116527 0
-0.00350882 -0.000374682 0
-0.00330821 7.60939e-06 0
-0.00396958 0.000501719 0
-0.00481866 0.00011138 0
-0.00426221 -0.000528256 0
-0.00331621 -0.000107666 0
-0.00417685 0.000814029 0
-0.00555086 0.000548241 0
-0.00394974 -0.00068534 0
-0.00229668 -0.000882624 0
-0.00261811 -0.00513577 0
-0.00256366 -0.0064187 0
-0.000817416 -0.00198191 0
-0.0024336 0.0081665 0
-0.00246465 0.00732767 0
0 0 0
0 0 0
0 0 0
-0.0010073 0.0018753 0
-0.000535809 0.000779475 0
-0.00100681 0.000249542 0
-0.00285777 0.00030737 0
-0.00196221 0.0004403 0
-0.00173405 -0.000214241 0
-0.00224026 -0.000112943 0
-0.00208875 0.000161885 0
-0.00210679 -0.000210319 0
-0.00291097 -0.000194637 0
-0.00353901 -0.000195276 0
-0.00439125 0.000821402 0
-0.00434217 0.000584244 0
-0.00349455 0.000120814 0
-0.00404994 -0.00055377 0
-0.00499701 -9.31371e-05 0
-0.00413538 0.000662683 0
-0.00276215 0.00029402 0
-0.00374078 -0.00102893 0
-0.00252058 -0.00463116 0
0.00103466 -0.00528219 0
-0.00092533 -0.00372963 0
-0.00154757 -0.00562329 0
0.000575358 0.0110933 0
0.000405246 0.00426278 0
-0.000154124 0.000120471 0
0 0 0
0 0 0
0.00111535 0.00172589 0
0.000551078 0.00044883 0
-0.000449529 0.00194313 0
0 0 0
0 0 0
0 0 0
0 0 0
0 0 0
0 0 0
0 0 0
-0.000927943 0.00113949 0
-0.000897979 0.000303348 0
0 0 0
0 0 0
0 0 0
0 0 0
0 0 0
0 0 0
0 0 0
-0.00166334 -0.00668096 0
-0.00298898 -0.00501229 0
2.72409e-05 -0.00379998 0
0.00159785 -0.00555414 0
0.00282862 0.00609738 0
0.00357236 0.00918762 0
0.000518685 0.000858745 0
-0.00059395 -0.000630009 0
0 0 0
0 0 0
0.000912329 0.00236467 0
0.00113282 0.00175722 0
0 0 0
0 0 0
0 0 0
0 0 0
0 0 0
0 0 0
-0.00088239 0.00104582 0
-0.000537089 0.000688931 0
0.000384833 -0.000310839 0
0 0 0
0 0 0
0 0 0
0 0 0
0 0 0
0 0 0
-0.001401 0.00137519 0
-0.00376443 -0.00247366 0
-0.00823024 -0.00361381 0
-0.00592558 -0.0135861 0
0.000366402 -0.00273892 0
-0.00150177 0.00379103 0
0.00104867 0.00911659 0
0.00505671 0.00141167 0
0.00208171 0.00114177 0
0 0 0
0 0 0
0.000883934 0.00131701 0
0.00109824 0.00164196 0
-0.00424903 0.00379979 0
-0.0076053 -0.000197763 0
-0.00564412 -0.00103378 0
-0.0056273 0.000942376 0
-0.00768824 0.00043038 0
-0.00672689 -0.000878101 0
-0.00462102 0.00128866 0
-0.00619782 0.000764051 0
-0.00673627 -0.000781814 0
-0.00534438 0.000107633 0
-0.007126 0.00114797 0
-0.00812068 -0.00054173 0
-0.00571546 -0.00107955 0
-0.0057372 0.00122102 0
-0.00891563 0.00124028 0
-0.00642707 -0.000337693 0
-0.00399847 0.00201704 0
-0.00966184 -0.000113121 0
-0.0127448 -0.0167309 0
-0.00522439 -0.00969603 0
-0.00126096 0.00807646 0
-0.000255737 0.000397083 0
0.00116831 0.00167201 0
-9.85474e-05 0.00537734 0
0 0 0
0 0 0
0 0 0
-0.00236938 0.00640035 0
-0.00502946 0.00849814 0
-0.00536316 0.000202519 0
-0.00732859 -0.000917019 0
-0.0073415 0.000918772 0
-0.00528467 0.000384874 0
-0.00624191 -0.000971943 0
-0.00747005 0.000166978 0
-0.00513373 0.0010369 0
-0.00539754 0.000255217 0
-0.00803012 0.000355301 0
-0.00649735 0.0012373 0
-0.00549993 -0.000530719 0
-0.00790733 -0.0010589 0
-0.00788419 0.00108939 0
-0.00470667 0.00109007 0
-0.00579359 -0.00199282 0
-0.0070309 0.00170753 0
-0.00161207 -0.00189837 0
-0.00324531 -0.00800828 0
-0.00382917 -0.023469 0
0.00173985 0.00755695 0
-0.00629705 0.00628246 0
-0.0141971 0.00177415 0
-0.00788489 0.00148065 0
-0.00104107 -0.00165783 0
0 0 0
0 0 0
0.00173248 0.0083814 0
0.00180918 0.00870464 0
0 0 0
0 0 0
0 0 0
0 0 0
0 0 0
0 0 0
0 0 0
0.000492149 0.00118945 0
0.000458567 0.000895072 0
0 0 0
0 0 0
0 0 0
0 0 0
0 0 0
0 0 0
0 0 0
-0.00137384 -0.00247515 0
0.00614554 -0.0148186 0
0.00800916 -0.0173794 0
-0.00199178 0.00782011 0
-0.0118868 0.0238192 0
-0.0117196 -0.00290625 0
-0.00502383 -0.00674483 0
-0.00275563 -0.00644631 0
0 0 0
0 0 0
-0.000258288 0.00552567 0
0.00374144 0.00642608 0
0.00412563 0.00481373 0
0.000762453 0.000169216 0
0.000176333 0.00018691 0
0 0 0
0 0 0
0 0 0
0 0 0
0 0 0
0.000476051 0.00160459 0
0.000177852 0.000665741 0
-0.000550793 9.92137e-06 0
-0.000306706 -0.000172363 0
0 0 0
0 0 0
0 0 0
0 0 0
0 0 0
-0.000784661 -0.0287772 0
-0.000453136 -0.00588305 0
-0.0063454 0.0200868 0
-0.00933274 0.0188092 0
-0.000864536 -0.00796334 0
0.00497595 -0.0105289 0
-0.00152548 -0.00114759 0
-0.00987213 -0.000586689 0
-0.00507508 -0.00257482 0
-0.000663473 0.00414619 0
-0.00295988 0.00667875 0
-0.000388981 0.00271544 0
0.00462449 0.00100606 0
0.00187495 0.00180337 0
0.00153182 -0.00106986 0
0.00471028 -0.000982685 0
0.00378441 0.00161233 0
0.000734347 0.000419176 0
0.00284622 -0.00161842 0
0.00589947 0.00132494 0
0.00266959 0.00309526 0
0.00116676 -0.00121907 0
0.00650766 -0.00266253 0
0.0062751 0.00240731 0
-6.48131e-05 0.00153279 0
0.00321524 -0.00385179 0
0.00914986 1.10482e-05 0
0.00250358 0.00428876 0
-0.0110519 -0.0174486 0
-0.00808527 -0.018491 0
0.0232954 0.0151404 0
0.0503501 0.00334283 0
0.0490252 -0.00405017 0
0.035359 -0.00511375 0
0.0341492 0.00403663 0
0.0386946 -0.000675941 0
0.0338955 -0.00265607 0
0.0316923 0.00125357 0
0.0396238 0.00401503 0
0.0421813 -0.00214155 0
0.0405233 0.00086672 0
0.0438672 0.00148146 0
0.0443811 -0.00113737 0
0.041203 -0.000982859 0
0.0421301 0.00164502 0
0.0451785 0.000352358 0
0.0430674 -0.00173803 0
0.0409215 0.000358635 0
0.0451536 0.00251336 0
0.0473819 -0.00113618 0
0.0417999 -0.00250649 0
0.0417244 0.00254786 0
0.0480631 0.00159553 0
0.0447834 -0.00386855 0
0.0388504 0.000107574 0
0.0454954 0.00433608 0
0.0489333 -0.00207259 0
0.0235971 -0.0152861 0

