# vtk DataFile Version 4.0
SiwiRVisFile
ASCII
DATASET STRUCTURED_POINTS
DIMENSIONS 28 14 1
ORIGIN 0 0 0
SPACING 1 1 1
POINT_DATA 392

SCALARS flags double 1
LOOKUP_TABLE default
1
1
1
1
1
1
1
1
1
1
1
1
1
1
1
1
1
1
1
1
1
1
1
1
1
1
1
1
1
1
1
1
1
1
1
1
1
1
1
1
1
1
1
1
1
1
1
1
1
1
1
1
1
1
1
1
1
1
1
1
1
1
1
1
1
1
1
1
1
1
1
1
1
1
1
1
1
1
1
1
1
1
1
1
1
1
1
1
1
1
1
1
1
1
1
1
1
1
1
1
1
1
1
1
1
1
1
1
1
1
1
1
1
1
1
1
1
1
1
1
1
1
1
1
1
1
1
1
1
1
1
1
1
1
1
1
1
1
1
1
1
1
1
1
1
1
1
1
1
1
1
1
1
1
1
1
1
1
1
1
1
1
1
1
1
1
1
1
1
1
1
1
1
1
1
1
1
1
1
1
1
1
1
1
1
1
1
1
1
1
1
1
1
1
1
1
1
1
1
1
1
1
1
1
1
1
1
1
1
1
1
1
1
1
1
1
1
1
1
1
1
1
1
1
1
1
1
1
1
1
1
1
1
1
1
1
1
1
1
1
1
1
1
1
1
1
1
1
1
1
1
1
1
1
1
1
1
1
1
1
1
1
1
1
1
1
1
1
1
1
1
1
1
1
1
1
1
1
1
1
1
1
1
1
1
1
1
1
1
1
1
1
1
1
1
1
1
1
1
1
1
1
1
1
1
1
1
1
1
1
1
1
1
1
1
1
1
1
1
1
1
1
1
1
1
1
1
1
1
1
1
1
1
1
1
1
1
1
1
1
1
1
1
1
1
1
1
1
1
1
1
1
1
1
1
1
1
1
1
1
1
1
1
1
1
1
1
1
1
1
1
1
1
1
1
1
1
1
1
1
1
1
1
1
1
1
1
1
1
1
1
1

SCALARS density double 1
LOOKUP_TABLE default
0.987838
0.980742
0.979946
0.998752
0.998192
0.998091
0.998056
1.00046
1.00123
1.00056
1.00299
1.00558
1.00504
1.00505
1.00609
1.00603
1.00589
1.00715
1.00827
1.00903
1.0077
1.01236
1.01751
1.01487
1.01085
1.01578
1.01794
1.01194
0.984991
0.978597
0.982714
0.999477
0.995625
0.998557
0.999981
0.999237
1.00016
1.00209
1.00317
1.00414
1.00565
1.00586
1.00549
1.00543
1.00654
1.00761
1.00753
1.0087
1.00858
1.01253
1.01631
1.01494
1.01259
1.01485
1.01637
1.01367
0.976576
0.987047
0
0
0
0
0
0
0
0
0
0
1.00563
1.00562
1.00535
0
0
0
0
0
0
0
1.01031
1.01375
1.01927
1.01328
1.01035
1.01775
0.967283
0.96973
0
0
0
0
0
0
0
0
0
0
0
1.0057
1.00553
0
0
0
0
0
0
0
0
1.01448
1.01467
1.01475
1.01438
1.01424
0.975279
0.961987
0
0
0
1.00497
0.999898
1.00525
1.00813
1.00488
1.00456
1.00778
1.00848
1.00463
1.00506
1.00918
1.00724
1.00435
1.00936
1.01207
1.00757
1.01142
1.01828
1.01538
1.00937
1.01605
1.01939
1.01113
0.967626
0.970608
0
0
0
0.999852
1.00526
1.00733
1.00279
1.00486
1.00955
1.00598
1.00432
1.00792
1.00797
1.0047
1.00623
1.00942
1.00794
1.00743
1.01133
1.0147
1.01259
1.01418
1.01626
1.01386
1.01308
1.01678
0.963584
0.97794
0.972026
0
0
1.00485
1.00867
1.00158
0
0
0
0
0
0
0
1.00505
1.00648
0
0
0
0
0
0
0
1.02041
1.01331
1.00939
1.01781
0.974029
0.964261
0.966786
0.974571
0
0
1.00005
1.00125
0
0
0
0
0
0
1.00653
1.00688
1.00508
0
0
0
0
0
0
1.01408
1.01082
1.01619
1.01872
1.00993
0.97372
0.961017
0.966802
0.978226
0
0
0.996097
1.00292
1.00182
0.990929
0.999169
1.00535
1.00392
1.0035
1.00609
1.00759
1.00597
1.0038
1.00692
1.00977
1.00581
1.01013
1.01636
1.0159
1.00977
1.01491
1.0193
1.01215
0.961591
0.978471
0.972384
0.958976
0
0
0
0.996974
0.998989
0.996394
1.00009
1.00052
1.00418
1.00773
1.00509
1.00387
1.00722
1.00806
1.00414
1.00556
1.0106
1.01352
1.00935
1.0143
1.01942
1.01201
1.00763
1.02262
0.967481
0.974918
0.969882
0.963237
0.970719
0
0
0.990963
0.992575
0
0
0
0
0
0
0
1.00481
1.00747
0
0
0
0
0
0
0
1.01482
1.00979
1.01646
0.977691
0.953837
0.965036
0.983723
0.968657
0
0
0.986478
0.982936
0.993253
0.993799
0.986783
0
0
0
0
0
1.00059
1.00534
1.00555
1.00183
0
0
0
0
0
1.02901
1.00448
0.964476
0.966986
0.96956
0.969654
0.969147
0.976519
0.985334
0.989374
0.989073
0.989107
0.987755
0.993759
0.994294
0.993893
0.995295
1.00081
1.00148
1.00028
1.0045
1.00671
1.00175
1.0041
1.01436
1.01002
1.00359
1.01923
1.01194
1.01194
0.95842
0.984728
0.971804
0.95745
0.97309
0.982222
0.980329
0.988062
0.992794
0.987131
0.988008
0.994353
0.992987
0.995506
0.996153
0.997057
1.00259
1.00534
1.00009
1.00166
1.01056
1.00698
1.00084
1.0129
1.0198
1.00774
0.996465
1.0347

VECTORS velocity double
-0.000510003 0.000517072 0
-0.0055308 0.00240287 0
-0.00840261 4.02182e-06 0
-0.00803402 -0.000507716 0
-0.00707804 -9.54118e-05 0
-0.00772616 0.000500036 0
-0.00829937 -9.2936e-05 0
-0.00758475 -0.000379652 0
-0.00733036 0.00018983 0
-0.00799579 0.000256578 0
-0.00802483 -0.000205353 0
-0.00735757 -0.000268543 0
-0.00730359 0.00022644 0
-0.00687777 -0.000501975 0
-0.00610882 -5.44571e-06 0
-0.00644199 0.000206314 0
-0.00649941 -0.000157005 0
-0.00616374 -7.47052e-05 0
-0.00634759 0.000173819 0
-0.00658911 -5.11434e-05 0
-0.00625234 -0.000263299 0
-0.00622551 0.000232317 0
-0.00633116 -0.000419952 0
-0.00421894 -0.00121022 0
-0.00227212 -0.000351995 0
-0.00171118 -0.000177339 0
-0.00101456 -0.000714202 0
-3.92626e-05 -0.000164245 0
-0.00246405 0.00541761 0
-0.00726794 0.00716771 0
-0.00708524 0.000764963 0
-0.0074541 -0.000640501 0
-0.00840987 -6.89886e-05 0
-0.00776181 0.000494749 0
-0.00718862 -9.19662e-05 0
-0.00790315 -0.000379649 0
-0.00815769 0.000188154 0
-0.00749203 0.000264622 0
-0.00746332 -0.000246762 0
-0.0081301 -0.00036185 0
-0.00735735 -0.000838403 0
-0.00674352 -0.000734513 0
-0.00683204 -0.000446095 0
-0.0062857 0.000221033 0
-0.00623102 -0.000128116 0
-0.00656205 -6.71607e-05 0
-0.00638464 0.000205036 0
-0.00613384 -1.74201e-05 0
-0.00648312 -0.000116343 0
-0.00649719 0.000237587 0
-0.0056396 -0.00185868 0
-0.00500953 -0.00267535 0
-0.00423242 -0.00214494 0
-0.00226596 -0.00106036 0
-0.00147124 -0.00138288 0
-0.000545918 -0.000834431 0
-0.000680105 0.00961596 0
-0.00125473 0.00587651 0
0 0 0
0 0 0
0 0 0
0 0 0
0 0 0
0 0 0
0 0 0
0 0 0
0 0 0
0 0 0
-0.000827732 -0.00096401 0
-0.000796106 -0.00116273 0
5.6571e-05 -0.00063296 0
0 0 0
0 0 0
0 0 0
0 0 0
0 0 0
0 0 0
0 0 0
-0.000775408 -0.0013192 0
-0.0024467 -0.00192178 0
-0.00298449 -0.00402716 0
-0.00166154 -0.00220672 0
-0.00109454 -0.00154498 0
-0.000327588 -0.00230167 0
0.00184809 0.00836102 0
0.00193381 0.00711766 0
0 0 0
0 0 0
0 0 0
0 0 0
0 0 0
0 0 0
0 0 0
0 0 0
0 0 0
0 0 0
0 0 0
-0.000657435 -0.00159278 0
-0.000641394 -0.00116582 0
0 0 0
0 0 0
0 0 0
0 0 0
0 0 0
0 0 0
0 0 0
0 0 0
-0.00164164 -0.000214534 0
-0.00392431 -0.00270219 0
-0.00355231 -0.00368764 0
-0.000976875 -0.00386207 0
0.000662318 -0.00190002 0
0.000269602 0.00498084 0
0.000300939 0.0105267 0
0 0 0
0 0 0
0 0 0
-0.000106051 2.7131e-05 0
-0.00181506 0.00115008 0
-0.00207032 -0.000898108 0
-0.00126345 0.000263999 0
-0.00215609 0.000356506 0
-0.00238693 -0.000193007 0
-0.00187798 -0.000111106 0
-0.00203257 0.000127935 0
-0.00242207 -0.000842898 0
-0.00317588 -0.00117371 0
-0.00350674 -0.000379139 0
-0.00330927 1.29232e-06 0
-0.00396461 0.00049473 0
-0.00482425 8.97494e-05 0
-0.00425126 -0.000553209 0
-0.00332896 -0.000154006 0
-0.00415753 0.000766765 0
-0.00557108 0.000466111 0
-0.00393397 -0.000781465 0
-0.00231828 -0.00095084 0
-0.00258993 -0.00516236 0
-0.00258282 -0.00643164 0
-0.000814862 -0.00198714 0
-0.00241726 0.00815256 0
-0.00247835 0.00730427 0
0 0 0
0 0 0
0 0 0
-0.001006 0.00187189 0
-0.000536596 0.000776707 0
-0.0010056 0.000247595 0
-0.00285769 0.000307337 0
-0.00196142 0.000441994 0
-0.00173368 -0.000211091 0
-0.00223964 -0.000108253 0
-0.00208824 0.00016829 0
-0.00210648 -0.000203058 0
-0.00291043 -0.000187265 0
-0.00353745 -0.000191581 0
-0.00439374 0.00082446 0
-0.00433598 0.000591706 0
-0.00350107 0.000142284 0
-0.00403761 -0.000529979 0
-0.00501173 -4.74509e-05 0
-0.00411248 0.000713857 0
-0.0027952 0.000381623 0
-0.00370961 -0.000931446 0
-0.00253136 -0.00458341 0
0.0010544 -0.00529713 0
-0.000960834 -0.00376754 0
-0.00149278 -0.0056822 0
0.000571497 0.0111139 0
0.000403485 0.00429276 0
-0.000143311 0.000185789 0
0 0 0
0 0 0
0.00111767 0.0017291 0
0.000548353 0.000451374 0
-0.000447009 0.00194503 0
0 0 0
0 0 0
0 0 0
0 0 0
0 0 0
0 0 0
0 0 0
-0.000925629 0.0011306 0
-0.000902718 0.000305321 0
0 0 0
0 0 0
0 0 0
0 0 0
0 0 0
0 0 0
0 0 0
-0.00169849 -0.00670623 0
-0.00294792 -0.00496737 0
2.78869e-05 -0.00370201 0
0.00156436 -0.00545141 0
0.00282627 0.00606395 0
0.00357449 0.00914848 0
0.000513229 0.000788059 0
-0.000588178 -0.000738145 0
0 0 0
0 0 0
0.000906654 0.00236025 0
0.0011384 0.00175295 0
0 0 0
0 0 0
0 0 0
0 0 0
0 0 0
0 0 0
-0.000890528 0.00104913 0
-0.000516252 0.000701042 0
0.000352889 -0.000314596 0
0 0 0
0 0 0
0 0 0
0 0 0
0 0 0
0 0 0
-0.00135447 0.00145651 0
-0.00378492 -0.00247944 0
-0.00822824 -0.00366006 0
-0.00587806 -0.0137383 0
0.000307523 -0.00289953 0
-0.00151878 0.00383029 0
0.00106001 0.00917875 0
0.00504457 0.0014984 0
0.00208946 0.0012558 0
0 0 0
0 0 0
0.00087942 0.00132173 0
0.00110271 0.0016477 0
-0.00425463 0.00380447 0
-0.00759647 -0.000189313 0
-0.00564991 -0.00103601 0
-0.00562001 0.000940639 0
-0.00769626 0.000426152 0
-0.0067121 -0.000872941 0
-0.00463495 0.00128123 0
-0.00617951 0.000739255 0
-0.00676068 -0.000784792 0
-0.00529943 0.000126476 0
-0.00718498 0.00108976 0
-0.00804961 -0.00056138 0
-0.00578169 -0.00118346 0
-0.0056854 0.00115419 0
-0.0089208 0.00118497 0
-0.00647404 -0.000427489 0
-0.00390315 0.00204432 0
-0.00984077 -4.34933e-05 0
-0.0124668 -0.0166495 0
-0.00544756 -0.00953446 0
-0.00127032 0.00802812 0
-0.000233275 0.000315418 0
0.00113403 0.00156302 0
-7.86119e-05 0.00523207 0
0 0 0
0 0 0
0 0 0
-0.00236528 0.00638947 0
-0.00503374 0.00848986 0
-0.0053546 0.00019162 0
-0.00733554 -0.000914765 0
-0.00733483 0.000920411 0
-0.0052912 0.000387021 0
-0.00622194 -0.000975298 0
-0.00751199 0.000181708 0
-0.00506807 0.0010692 0
-0.00547364 0.000270232 0
-0.00794193 0.000311751 0
-0.00658509 0.00129921 0
-0.00541033 -0.000507757 0
-0.00797925 -0.00096091 0
-0.00784048 0.00115693 0
-0.0046886 0.00115704 0
-0.00591915 -0.0018949 0
-0.00678887 0.00167039 0
-0.00201807 -0.00195856 0
-0.00273013 -0.00797264 0
-0.00425413 -0.0236632 0
0.00164055 0.00762621 0
-0.006229 0.00636361 0
-0.0142189 0.00189986 0
-0.00787798 0.00165344 0
-0.0010603 -0.00146711 0
0 0 0
0 0 0
0.00175214 0.00841564 0
0.00177958 0.00872336 0
0 0 0
0 0 0
0 0 0
0 0 0
0 0 0
0 0 0
0 0 0
0.000191039 0.0011545 0
0.000751125 0.000927861 0
0 0 0
0 0 0
0 0 0
0 0 0
0 0 0
0 0 0
0 0 0
-0.00176476 -0.00241002 0
0.00684122 -0.0149418 0
0.00654352 -0.0170408 0
-0.00205496 0.00772894 0
-0.0118668 0.0237182 0
-0.0117399 -0.00307817 0
-0.00503219 -0.0069019 0
-0.0027749 -0.00657293 0
0 0 0
0 0 0
-0.000291642 0.00543678 0
0.0037534 0.00636584 0
0.00409029 0.00476726 0
0.000812954 7.55137e-05 0
0.000104204 0.000167954 0
0 0 0
0 0 0
0 0 0
0 0 0
0 0 0
0.000584455 0.00175393 0
2.31051e-05 0.000507918 0
-0.000258347 0.000289656 0
-0.000711834 -0.000668047 0
0 0 0
0 0 0
0 0 0
0 0 0
0 0 0
-9.96007e-05 -0.0288059 0
-0.00129443 -0.00582233 0
-0.00651295 0.0202175 0
-0.00930068 0.0190053 0
-0.000870239 -0.00777451 0
0.00494436 -0.0104088 0
-0.0014762 -0.00105445 0
-0.00992327 -0.000504097 0
-0.0049851 -0.00230085 0
-0.000764957 0.00425285 0
-0.00288564 0.00678732 0
-0.0004672 0.00276777 0
0.00471291 0.0011367 0
0.00176044 0.00177758 0
0.00169016 -0.000768183 0
0.00441961 -0.00148692 0
0.00423184 0.00212425 0
0.00022076 -0.000127153 0
0.00336524 -0.00100139 0
0.00544955 0.00085815 0
0.00294024 0.00347958 0
0.00106215 -0.00166359 0
0.00641222 -0.00185723 0
0.00658213 0.00134186 0
-0.000468251 0.00242092 0
0.00360494 -0.00476348 0
0.00887534 0.000874893 0
0.00218655 0.00387234 0
-0.0105043 -0.0170918 0
-0.00824021 -0.0192772 0
0.0232511 0.014849 0
0.0503104 0.00310904 0
0.0490339 -0.00419566 0
0.0353827 -0.0052079 0
0.0341311 0.00388654 0
0.0387059 -0.000796478 0
0.0338746 -0.00286349 0
0.0317242 0.00116293 0
0.0395924 0.00387292 0
0.0422055 -0.00220699 0
0.040484 0.000724449 0
0.0439249 0.00148367 0
0.0442558 -0.0013267 0
0.0414373 -0.000666294 0
0.0418035 0.00124613 0
0.0455681 0.000736089 0
0.0425908 -0.00216011 0
0.0414738 0.000809756 0
0.0445623 0.00209802 0
0.048052 -0.000753366 0
0.0408715 -0.00308674 0
0.0428206 0.00339955 0
0.0469361 0.000872609 0
0.0459896 -0.00324237 0
0.0378052 -0.000532833 0
0.0463229 0.00469122 0
0.0486407 -0.00241431 0
0.0192765 -0.0127092 0

