# vtk DataFile Version 4.0
SiwiRVisFile
ASCII
DATASET STRUCTURED_POINTS
DIMENSIONS 28 14 1
ORIGIN 0 0 0
SPACING 1 1 1
POINT_DATA 392

SCALARS flags double 1
LOOKUP_TABLE default
1
1
1
1
1
1
1
1
1
1
1
1
1
1
1
1
1
1
1
1
1
1
1
1
1
1
1
1
1
1
1
1
1
1
1
1
1
1
1
1
1
1
1
1
1
1
1
1
1
1
1
1
1
1
1
1
1
1
1
1
1
1
1
1
1
1
1
1
1
1
1
1
1
1
1
1
1
1
1
1
1
1
1
1
1
1
1
1
1
1
1
1
1
1
1
1
1
1
1
1
1
1
1
1
1
1
1
1
1
1
1
1
1
1
1
1
1
1
1
1
1
1
1
1
1
1
1
1
1
1
1
1
1
1
1
1
1
1
1
1
1
1
1
1
1
1
1
1
1
1
1
1
1
1
1
1
1
1
1
1
1
1
1
1
1
1
1
1
1
1
1
1
1
1
1
1
1
1
1
1
1
1
1
1
1
1
1
1
1
1
1
1
1
1
1
1
1
1
1
1
1
1
1
1
1
1
1
1
1
1
1
1
1
1
1
1
1
1
1
1
1
1
1
1
1
1
1
1
1
1
1
1
1
1
1
1
1
1
1
1
1
1
1
1
1
1
1
1
1
1
1
1
1
1
1
1
1
1
1
1
1
1
1
1
1
1
1
1
1
1
1
1
1
1
1
1
1
1
1
1
1
1
1
1
1
1
1
1
1
1
1
1
1
1
1
1
1
1
1
1
1
1
1
1
1
1
1
1
1
1
1
1
1
1
1
1
1
1
1
1
1
1
1
1
1
1
1
1
1
1
1
1
1
1
1
1
1
1
1
1
1
1
1
1
1
1
1
1
1
1
1
1
1
1
1
1
1
1
1
1
1
1
1
1
1
1
1
1
1
1
1
1
1
1
1
1
1
1
1
1
1
1
1
1
1
1
1
1
1
1
1
1

SCALARS density double 1
LOOKUP_TABLE default
0.987837
0.980741
0.979945
0.998752
0.998193
0.998091
0.998056
1.00046
1.00123
1.00056
1.00299
1.00558
1.00504
1.00505
1.00609
1.00603
1.00589
1.00715
1.00827
1.00903
1.0077
1.01236
1.01751
1.01487
1.01086
1.01578
1.01794
1.01194
0.98499
0.978596
0.982713
0.999478
0.995625
0.998557
0.999981
0.999238
1.00016
1.00209
1.00317
1.00414
1.00565
1.00586
1.00549
1.00543
1.00654
1.00761
1.00753
1.0087
1.00858
1.01253
1.01632
1.01494
1.01259
1.01485
1.01637
1.01367
0.976575
0.987046
0
0
0
0
0
0
0
0
0
0
1.00563
1.00562
1.00535
0
0
0
0
0
0
0
1.01031
1.01375
1.01927
1.01328
1.01036
1.01775
0.96728
0.969728
0
0
0
0
0
0
0
0
0
0
0
1.0057
1.00553
0
0
0
0
0
0
0
0
1.01449
1.01467
1.01475
1.01438
1.01424
0.975276
0.961985
0
0
0
1.00497
0.999898
1.00525
1.00813
1.00488
1.00456
1.00778
1.00848
1.00463
1.00506
1.00918
1.00724
1.00435
1.00936
1.01207
1.00757
1.01142
1.01829
1.01538
1.00937
1.01605
1.0194
1.01114
0.967623
0.970605
0
0
0
0.999851
1.00526
1.00733
1.00279
1.00486
1.00955
1.00598
1.00432
1.00793
1.00797
1.0047
1.00623
1.00942
1.00794
1.00743
1.01133
1.01471
1.01259
1.01418
1.01626
1.01386
1.01308
1.01678
0.963582
0.977937
0.972023
0
0
1.00485
1.00867
1.00158
0
0
0
0
0
0
0
1.00505
1.00647
0
0
0
0
0
0
0
1.02041
1.01332
1.00939
1.01781
0.974026
0.964259
0.966783
0.974568
0
0
1.00005
1.00125
0
0
0
0
0
0
1.00653
1.00688
1.00508
0
0
0
0
0
0
1.01408
1.01082
1.01619
1.01872
1.00993
0.973716
0.961013
0.9668
0.978223
0
0
0.996096
1.00292
1.00182
0.990927
0.999168
1.00535
1.00392
1.0035
1.00609
1.00759
1.00597
1.0038
1.00691
1.00977
1.00581
1.01013
1.01637
1.0159
1.00977
1.0149
1.01932
1.01215
0.961589
0.978468
0.972382
0.958973
0
0
0
0.996972
0.998988
0.996392
1.00009
1.00052
1.00418
1.00773
1.00508
1.00388
1.00722
1.00806
1.00414
1.00556
1.0106
1.01352
1.00936
1.0143
1.01943
1.012
1.00765
1.02262
0.967478
0.974913
0.969879
0.963236
0.970717
0
0
0.990961
0.992572
0
0
0
0
0
0
0
1.00481
1.00747
0
0
0
0
0
0
0
1.01482
1.00978
1.01647
0.977689
0.953839
0.965032
0.983718
0.968654
0
0
0.986475
0.982933
0.99325
0.993797
0.986779
0
0
0
0
0
1.00059
1.00534
1.00555
1.00182
0
0
0
0
0
1.02901
1.0045
0.964472
0.966977
0.969562
0.969652
0.969146
0.976515
0.985331
0.989371
0.989071
0.989104
0.987753
0.993754
0.994295
0.99389
0.995289
1.00081
1.00148
1.00028
1.00451
1.00668
1.00177
1.00409
1.01437
1.01002
1.00362
1.0192
1.01199
1.0119
0.958419
0.984727
0.971799
0.957447
0.973089
0.982218
0.980327
0.988058
0.992793
0.987126
0.988006
0.994347
0.992991
0.995489
0.996169
0.997026
1.00262
1.0053
1.00013
1.0016
1.01062
1.0069
1.00093
1.01281
1.01989
1.00768
0.996523
1.03471

VECTORS velocity double
-0.000509716 0.000514618 0
-0.00553163 0.00240168 0
-0.00840319 3.6613e-06 0
-0.00803477 -0.000506514 0
-0.00707862 -9.26362e-05 0
-0.00772688 0.000504219 0
-0.00829998 -8.73436e-05 0
-0.00758537 -0.000372706 0
-0.00733113 0.000197596 0
-0.00799639 0.000265162 0
-0.00802539 -0.000195847 0
-0.0073584 -0.000258302 0
-0.00730414 0.000236928 0
-0.00687879 -0.000490632 0
-0.00610969 7.27258e-06 0
-0.00644348 0.000221161 0
-0.0064997 -0.000137915 0
-0.00616648 -5.35607e-05 0
-0.00634723 0.000201648 0
-0.00659245 -1.48674e-05 0
-0.00625118 -0.000208285 0
-0.00622957 0.000308805 0
-0.00632742 -0.000313822 0
-0.00421833 -0.00107642 0
-0.00227418 -0.000212423 0
-0.00171272 -3.58197e-05 0
-0.00101176 -0.00056469 0
-4.29654e-05 -1.48924e-05 0
-0.00246404 0.00542095 0
-0.0072686 0.00717049 0
-0.00708571 0.000765425 0
-0.00745485 -0.000641713 0
-0.00841049 -7.17319e-05 0
-0.00776244 0.000490421 0
-0.00718934 -9.75521e-05 0
-0.0079038 -0.000386354 0
-0.00815828 0.00018028 0
-0.00749272 0.000255798 0
-0.00746405 -0.000256075 0
-0.00813063 -0.000371747 0
-0.00735823 -0.000848599 0
-0.00674451 -0.000745113 0
-0.00683274 -0.000457681 0
-0.00628746 0.00020612 0
-0.0062312 -0.000146793 0
-0.00656456 -8.82832e-05 0
-0.00638409 0.000176729 0
-0.00613836 -5.35223e-05 0
-0.00648027 -0.000170849 0
-0.00650138 0.000157788 0
-0.00563628 -0.00196138 0
-0.00501569 -0.00279571 0
-0.00423077 -0.00227388 0
-0.00226906 -0.00118954 0
-0.00146742 -0.00151462 0
-0.000551524 -0.000972844 0
-0.000679066 0.00961231 0
-0.00125548 0.00587306 0
0 0 0
0 0 0
0 0 0
0 0 0
0 0 0
0 0 0
0 0 0
0 0 0
0 0 0
0 0 0
-0.00082739 -0.000954146 0
-0.000796074 -0.00115242 0
5.65142e-05 -0.000622343 0
0 0 0
0 0 0
0 0 0
0 0 0
0 0 0
0 0 0
0 0 0
-0.000767442 -0.0012253 0
-0.00245502 -0.00181503 0
-0.00297547 -0.00391799 0
-0.00166858 -0.00210203 0
-0.00108865 -0.0014428 0
-0.000330338 -0.00219289 0
0.00184805 0.00836935 0
0.00193389 0.00712512 0
0 0 0
0 0 0
0 0 0
0 0 0
0 0 0
0 0 0
0 0 0
0 0 0
0 0 0
0 0 0
0 0 0
-0.000658225 -0.00160069 0
-0.000639916 -0.00117441 0
0 0 0
0 0 0
0 0 0
0 0 0
0 0 0
0 0 0
0 0 0
0 0 0
-0.00166403 -0.000314535 0
-0.00391134 -0.00278971 0
-0.00356657 -0.00375747 0
-0.000961193 -0.00392461 0
0.000639827 -0.00196551 0
0.000269287 0.00496958 0
0.000300979 0.0105134 0
0 0 0
0 0 0
0 0 0
-0.000106541 2.40434e-05 0
-0.00181499 0.00114766 0
-0.00207148 -0.000900528 0
-0.00126341 0.000263481 0
-0.00215692 0.000357695 0
-0.00238738 -0.000190508 0
-0.00187862 -0.000106848 0
-0.00203267 0.000134068 0
-0.00242315 -0.000835059 0
-0.00317487 -0.00116512 0
-0.00350877 -0.00037437 0
-0.00330828 8.0496e-06 0
-0.00396951 0.000502386 0
-0.00481873 0.000112268 0
-0.0042621 -0.000527122 0
-0.00331634 -0.000106495 0
-0.00417673 0.000815288 0
-0.00555093 0.000549607 0
-0.00394967 -0.000683987 0
-0.00229671 -0.000881352 0
-0.00261809 -0.00513453 0
-0.00256368 -0.00641745 0
-0.00081738 -0.00198059 0
-0.00243397 0.00816775 0
-0.00246435 0.00732889 0
0 0 0
0 0 0
0 0 0
-0.00100749 0.00187577 0
-0.000535646 0.000779928 0
-0.00100697 0.00025003 0
-0.00285764 0.000307929 0
-0.00196233 0.000440952 0
-0.00173398 -0.000213597 0
-0.00224029 -0.000112479 0
-0.00208875 0.00016215 0
-0.00210674 -0.000210312 0
-0.00291103 -0.00019479 0
-0.00353896 -0.000195573 0
-0.0043913 0.000820974 0
-0.00434211 0.000583557 0
-0.00349462 0.000119921 0
-0.00404986 -0.000554845 0
-0.00499709 -9.42947e-05 0
-0.00413526 0.000661336 0
-0.00276227 0.000292636 0
-0.00374071 -0.00103012 0
-0.00252064 -0.00463224 0
0.00103467 -0.00528319 0
-0.000925361 -0.00373059 0
-0.00154748 -0.00562435 0
0.000575745 0.011092 0
0.000405108 0.00426171 0
-0.000154364 0.000119225 0
0 0 0
0 0 0
0.00111517 0.00172541 0
0.00055125 0.00044839 0
-0.000449696 0.00194268 0
0 0 0
0 0 0
0 0 0
0 0 0
0 0 0
0 0 0
0 0 0
-0.000927851 0.00113978 0
-0.000898067 0.000303751 0
0 0 0
0 0 0
0 0 0
0 0 0
0 0 0
0 0 0
0 0 0
-0.00166335 -0.00668014 0
-0.00298889 -0.0050115 0
2.71901e-05 -0.00379916 0
0.00159784 -0.00555337 0
0.00282844 0.00609877 0
0.00357247 0.00918866 0
0.000518723 0.000859954 0
-0.000594045 -0.000628761 0
0 0 0
0 0 0
0.000912516 0.00236511 0
0.00113262 0.00175763 0
0 0 0
0 0 0
0 0 0
0 0 0
0 0 0
0 0 0
-0.000882481 0.00104557 0
-0.000537006 0.000688638 0
0.000384748 -0.000311198 0
0 0 0
0 0 0
0 0 0
0 0 0
0 0 0
0 0 0
-0.0014009 0.00137454 0
-0.00376454 -0.00247433 0
-0.00823015 -0.00361442 0
-0.00592568 -0.0135867 0
0.000366476 -0.00273953 0
-0.0015015 0.0037898 0
0.0010485 0.00911531 0
0.00505674 0.00141044 0
0.00208177 0.00114054 0
0 0 0
0 0 0
0.000884076 0.00131654 0
0.00109814 0.0016416 0
-0.00424898 0.00379961 0
-0.00760533 -0.000197852 0
-0.00564411 -0.00103381 0
-0.00562728 0.000942444 0
-0.00768828 0.000430476 0
-0.00672683 -0.000877891 0
-0.00462108 0.00128891 0
-0.00619774 0.000764368 0
-0.00673636 -0.000781503 0
-0.00534429 0.000108085 0
-0.00712611 0.00114851 0
-0.00812053 -0.000540869 0
-0.0057156 -0.00107876 0
-0.00573709 0.00122179 0
-0.00891573 0.00124096 0
-0.00642696 -0.000337021 0
-0.00399857 0.00201767 0
-0.00966173 -0.000112621 0
-0.0127448 -0.0167305 0
-0.00522438 -0.00969553 0
-0.00126122 0.00807757 0
-0.000255753 0.000398398 0
0.00116857 0.0016733 0
-9.87253e-05 0.00537875 0
0 0 0
0 0 0
0 0 0
-0.00236941 0.00640069 0
-0.00502941 0.00849836 0
-0.0053632 0.000202618 0
-0.00732857 -0.000916994 0
-0.00734148 0.000918698 0
-0.00528471 0.000384772 0
-0.00624186 -0.000972141 0
-0.00747009 0.000166735 0
-0.00513368 0.00103655 0
-0.00539764 0.00025494 0
-0.00803002 0.00035492 0
-0.00649744 0.00123671 0
-0.00549982 -0.000531528 0
-0.00790745 -0.00105961 0
-0.00788403 0.00108854 0
-0.00470681 0.00108932 0
-0.00579353 -0.00199342 0
-0.0070309 0.00170688 0
-0.00161208 -0.00189882 0
-0.00324541 -0.00800856 0
-0.00382899 -0.0234692 0
0.00174077 0.00755577 0
-0.0062976 0.0062814 0
-0.014197 0.00177279 0
-0.00788491 0.00147914 0
-0.00104085 -0.00165944 0
0 0 0
0 0 0
0.00173259 0.008381 0
0.00180921 0.00870426 0
0 0 0
0 0 0
0 0 0
0 0 0
0 0 0
0 0 0
0 0 0
0.00049213 0.00118972 0
0.000458552 0.000895317 0
0 0 0
0 0 0
0 0 0
0 0 0
0 0 0
0 0 0
0 0 0
-0.00137361 -0.00247472 0
0.00614547 -0.0148183 0
0.00800919 -0.0173793 0
-0.00199153 0.0078213 0
-0.0118868 0.0238203 0
-0.0117194 -0.00290455 0
-0.0050239 -0.00674346 0
-0.00275532 -0.00644527 0
0 0 0
0 0 0
-0.000258052 0.00552629 0
0.0037414 0.00642671 0
0.00412573 0.00481435 0
0.000762311 0.000169702 0
0.000176579 0.000187281 0
0 0 0
0 0 0
0 0 0
0 0 0
0 0 0
0.000475967 0.00160455 0
0.000177902 0.000665609 0
-0.000550788 9.78858e-06 0
-0.000306719 -0.000172522 0
0 0 0
0 0 0
0 0 0
0 0 0
0 0 0
-0.000784915 -0.0287774 0
-0.00045292 -0.00588323 0
-0.00634376 0.0200854 0
-0.00933305 0.0188072 0
-0.000864444 -0.00796516 0
0.00497616 -0.0105301 0
-0.00152573 -0.00114833 0
-0.00987212 -0.000587399 0
-0.00507523 -0.0025759 0
-0.000663325 0.00414531 0
-0.00295994 0.00667791 0
-0.000388857 0.00271465 0
0.00462448 0.00100544 0
0.00187493 0.00180293 0
0.00153181 -0.00107024 0
0.00471023 -0.000983167 0
0.00378447 0.001612 0
0.000734284 0.000418725 0
0.00284628 -0.00161881 0
0.00589946 0.00132478 0
0.00266961 0.00309529 0
0.00116671 -0.00121902 0
0.00650768 -0.0026624 0
0.00627506 0.00240733 0
-6.47642e-05 0.00153296 0
0.00321524 -0.00385159 0
0.00914979 1.12248e-05 0
0.0025037 0.00428897 0
-0.0110519 -0.0174484 0
-0.00808529 -0.0184908 0
0.0232957 0.0151431 0
0.0503505 0.00334519 0
0.0490251 -0.00404876 0
0.0353588 -0.00511279 0
0.0341492 0.0040377 0
0.0386946 -0.000675156 0
0.0338954 -0.00265524 0
0.0316923 0.00125454 0
0.0396238 0.00401606 0
0.0421813 -0.00214078 0
0.0405233 0.000867465 0
0.0438672 0.00148203 0
0.0443811 -0.00113698 0
0.041203 -0.000982402 0
0.04213 0.00164543 0
0.0451785 0.000352795 0
0.0430674 -0.00173774 0
0.0409215 0.000358822 0
0.0451536 0.00251334 0
0.0473819 -0.00113621 0
0.0417999 -0.00250659 0
0.0417244 0.00254777 0
0.0480631 0.00159534 0
0.0447835 -0.00386869 0
0.0388504 0.000107386 0
0.0454954 0.00433582 0
0.0489333 -0.00207276 0
0.023598 -0.0152865 0

