# vtk DataFile Version 4.0
SiwiRVisFile
ASCII
DATASET STRUCTURED_POINTS
DIMENSIONS 28 14 1
ORIGIN 0 0 0
SPACING 1 1 1
POINT_DATA 392

SCALARS flags double 1
LOOKUP_TABLE default
1
1
1
1
1
1
1
1
1
1
1
1
1
1
1
1
1
1
1
1
1
1
1
1
1
1
1
1
1
1
1
1
1
1
1
1
1
1
1
1
1
1
1
1
1
1
1
1
1
1
1
1
1
1
1
1
1
1
1
1
1
1
1
1
1
1
1
1
1
1
1
1
1
1
1
1
1
1
1
1
1
1
1
1
1
1
1
1
1
1
1
1
1
1
1
1
1
1
1
1
1
1
1
1
1
1
1
1
1
1
1
1
1
1
1
1
1
1
1
1
1
1
1
1
1
1
1
1
1
1
1
1
1
1
1
1
1
1
1
1
1
1
1
1
1
1
1
1
1
1
1
1
1
1
1
1
1
1
1
1
1
1
1
1
1
1
1
1
1
1
1
1
1
1
1
1
1
1
1
1
1
1
1
1
1
1
1
1
1
1
1
1
1
1
1
1
1
1
1
1
1
1
1
1
1
1
1
1
1
1
1
1
1
1
1
1
1
1
1
1
1
1
1
1
1
1
1
1
1
1
1
1
1
1
1
1
1
1
1
1
1
1
1
1
1
1
1
1
1
1
1
1
1
1
1
1
1
1
1
1
1
1
1
1
1
1
1
1
1
1
1
1
1
1
1
1
1
1
1
1
1
1
1
1
1
1
1
1
1
1
1
1
1
1
1
1
1
1
1
1
1
1
1
1
1
1
1
1
1
1
1
1
1
1
1
1
1
1
1
1
1
1
1
1
1
1
1
1
1
1
1
1
1
1
1
1
1
1
1
1
1
1
1
1
1
1
1
1
1
1
1
1
1
1
1
1
1
1
1
1
1
1
1
1
1
1
1
1
1
1
1
1
1
1
1
1
1
1
1
1
1
1
1
1
1
1
1
1
1
1
1
1

SCALARS density double 1
LOOKUP_TABLE default
0.987837
0.980741
0.979945
0.998752
0.998193
0.998091
0.998056
1.00046
1.00123
1.00056
1.00299
1.00558
1.00504
1.00505
1.00609
1.00603
1.00589
1.00715
1.00827
1.00903
1.0077
1.01236
1.01751
1.01487
1.01086
1.01578
1.01794
1.01194
0.98499
0.978596
0.982713
0.999478
0.995625
0.998557
0.999981
0.999238
1.00016
1.00209
1.00317
1.00414
1.00565
1.00586
1.00549
1.00543
1.00654
1.00761
1.00753
1.0087
1.00858
1.01253
1.01632
1.01494
1.01259
1.01485
1.01637
1.01367
0.976575
0.987046
0
0
0
0
0
0
0
0
0
0
1.00563
1.00562
1.00535
0
0
0
0
0
0
0
1.01031
1.01375
1.01927
1.01328
1.01036
1.01775
0.96728
0.969727
0
0
0
0
0
0
0
0
0
0
0
1.0057
1.00553
0
0
0
0
0
0
0
0
1.01449
1.01467
1.01475
1.01438
1.01424
0.975276
0.961985
0
0
0
1.00497
0.999898
1.00525
1.00813
1.00488
1.00456
1.00778
1.00848
1.00463
1.00506
1.00918
1.00724
1.00435
1.00936
1.01207
1.00757
1.01142
1.01829
1.01538
1.00937
1.01605
1.0194
1.01114
0.967623
0.970605
0
0
0
0.999851
1.00526
1.00733
1.00279
1.00486
1.00955
1.00598
1.00432
1.00793
1.00797
1.0047
1.00623
1.00942
1.00794
1.00743
1.01133
1.01471
1.01259
1.01418
1.01626
1.01386
1.01308
1.01678
0.963582
0.977937
0.972023
0
0
1.00485
1.00867
1.00158
0
0
0
0
0
0
0
1.00505
1.00647
0
0
0
0
0
0
0
1.02041
1.01332
1.00939
1.01781
0.974026
0.964259
0.966783
0.974568
0
0
1.00005
1.00125
0
0
0
0
0
0
1.00653
1.00688
1.00508
0
0
0
0
0
0
1.01408
1.01082
1.01619
1.01872
1.00993
0.973716
0.961013
0.9668
0.978223
0
0
0.996096
1.00292
1.00182
0.990927
0.999168
1.00535
1.00392
1.0035
1.00609
1.00759
1.00597
1.0038
1.00691
1.00977
1.00581
1.01013
1.01637
1.0159
1.00977
1.0149
1.01932
1.01215
0.961589
0.978468
0.972382
0.958973
0
0
0
0.996972
0.998988
0.996392
1.00009
1.00052
1.00418
1.00773
1.00508
1.00388
1.00722
1.00806
1.00414
1.00556
1.0106
1.01352
1.00936
1.0143
1.01943
1.012
1.00765
1.02262
0.967478
0.974914
0.969879
0.963236
0.970717
0
0
0.990961
0.992572
0
0
0
0
0
0
0
1.00481
1.00747
0
0
0
0
0
0
0
1.01482
1.00978
1.01647
0.977689
0.953838
0.965032
0.983718
0.968654
0
0
0.986475
0.982933
0.99325
0.993797
0.986779
0
0
0
0
0
1.00059
1.00534
1.00555
1.00182
0
0
0
0
0
1.02901
1.0045
0.964472
0.966978
0.969562
0.969652
0.969146
0.976515
0.985331
0.989371
0.989071
0.989104
0.987753
0.993754
0.994295
0.99389
0.995289
1.00081
1.00148
1.00028
1.00451
1.00668
1.00177
1.00409
1.01437
1.01002
1.00362
1.0192
1.01199
1.0119
0.958419
0.984727
0.971799
0.957447
0.973089
0.982218
0.980327
0.988058
0.992793
0.987126
0.988006
0.994347
0.992991
0.995489
0.996169
0.997026
1.00262
1.0053
1.00013
1.0016
1.01062
1.0069
1.00093
1.01281
1.01989
1.00768
0.996523
1.03471

VECTORS velocity double
-0.0005109 0.00051814 0
-0.00553091 0.00240503 0
-0.00840332 8.59232e-06 0
-0.00803446 -0.000500316 0
-0.00707891 -8.72926e-05 0
-0.00772675 0.000508576 0
-0.0083 -8.37612e-05 0
-0.00758535 -0.000369939 0
-0.00733118 0.000199453 0
-0.00799637 0.000266221 0
-0.00802541 -0.000195502 0
-0.0073584 -0.000258665 0
-0.00730414 0.000235962 0
-0.00687878 -0.000492259 0
-0.00610967 4.72952e-06 0
-0.00644354 0.000217319 0
-0.00649973 -0.000143137 0
-0.00616648 -5.93496e-05 0
-0.00634717 0.000195641 0
-0.00659256 -2.11925e-05 0
-0.00625111 -0.000214702 0
-0.00622959 0.000302544 0
-0.00632749 -0.00032022 0
-0.0042185 -0.0010833 0
-0.00227392 -0.000218897 0
-0.00171284 -4.22889e-05 0
-0.00101173 -0.000571297 0
-4.29227e-05 -2.1199e-05 0
-0.00246443 0.00541741 0
-0.00726817 0.00716644 0
-0.00708627 0.00076038 0
-0.00745436 -0.000647483 0
-0.00841065 -7.69869e-05 0
-0.00776231 0.00048584 0
-0.00718947 -0.000101127 0
-0.00790374 -0.000389011 0
-0.00815828 0.000178398 0
-0.00749272 0.000254701 0
-0.00746406 -0.000256408 0
-0.00813066 -0.000371361 0
-0.00735816 -0.000847691 0
-0.00674452 -0.000743608 0
-0.00683274 -0.000455364 0
-0.00628745 0.000209951 0
-0.00623128 -0.000141681 0
-0.00656459 -8.25365e-05 0
-0.00638407 0.000182844 0
-0.00613838 -4.72103e-05 0
-0.00648022 -0.000164551 0
-0.00650145 0.000164119 0
-0.00563618 -0.00195532 0
-0.00501579 -0.00278959 0
-0.00423064 -0.00226773 0
-0.00226913 -0.00118338 0
-0.00146736 -0.00150849 0
-0.00055161 -0.000966722 0
-0.000680752 0.00961631 0
-0.00125421 0.00587781 0
0 0 0
0 0 0
0 0 0
0 0 0
0 0 0
0 0 0
0 0 0
0 0 0
0 0 0
0 0 0
-0.000827291 -0.0009549 0
-0.000796255 -0.00115364 0
5.67083e-05 -0.000624235 0
0 0 0
0 0 0
0 0 0
0 0 0
0 0 0
0 0 0
0 0 0
-0.000767442 -0.00123096 0
-0.00245508 -0.00182038 0
-0.00297541 -0.00392342 0
-0.00166873 -0.00210757 0
-0.00108852 -0.00144835 0
-0.00033035 -0.00219839 0
0.00184976 0.00836486 0
0.00193208 0.00712057 0
0 0 0
0 0 0
0 0 0
0 0 0
0 0 0
0 0 0
0 0 0
0 0 0
0 0 0
0 0 0
0 0 0
-0.000658355 -0.00159978 0
-0.000639765 -0.00117299 0
0 0 0
0 0 0
0 0 0
0 0 0
0 0 0
0 0 0
0 0 0
0 0 0
-0.00166401 -0.000309717 0
-0.00391124 -0.00278516 0
-0.0035667 -0.00375277 0
-0.000961085 -0.00391975 0
0.000639741 -0.00196084 0
0.000267501 0.00497389 0
0.000303091 0.0105175 0
0 0 0
0 0 0
0 0 0
-0.000106125 2.54581e-05 0
-0.00181542 0.00114896 0
-0.00207104 -0.000899017 0
-0.00126377 0.00026501 0
-0.00215666 0.000359276 0
-0.00238747 -0.000188998 0
-0.00187869 -0.000106035 0
-0.00203257 0.000134126 0
-0.00242329 -0.00083582 0
-0.00317468 -0.00116625 0
-0.00350896 -0.000375839 0
-0.00330803 6.26893e-06 0
-0.00396977 0.000499848 0
-0.00481849 0.000108965 0
-0.00426246 -0.000531178 0
-0.00331592 -0.000110582 0
-0.0041771 0.000811031 0
-0.00555072 0.000545113 0
-0.00394989 -0.000688321 0
-0.00229663 -0.000885317 0
-0.00261814 -0.00513831 0
-0.0025636 -0.00642122 0
-0.000817517 -0.00198455 0
-0.00243281 0.00816396 0
-0.00246528 0.00732509 0
0 0 0
0 0 0
0 0 0
-0.001007 0.00187434 0
-0.000536073 0.000778551 0
-0.00100656 0.000248604 0
-0.00285799 0.000306409 0
-0.00196204 0.000439329 0
-0.00173414 -0.000215086 0
-0.00224026 -0.000113306 0
-0.00208868 0.000162024 0
-0.00210692 -0.000209611 0
-0.00291079 -0.00019372 0
-0.00353917 -0.000194215 0
-0.00439109 0.000822691 0
-0.00434234 0.000586174 0
-0.00349439 0.00012324 0
-0.00405012 -0.000551 0
-0.00499683 -9.02539e-05 0
-0.00413565 0.000665894 0
-0.00276188 0.000297192 0
-0.00374091 -0.00102633 0
-0.00252045 -0.00462893 0
0.00103461 -0.00528022 0
-0.00092528 -0.00372777 0
-0.00154771 -0.00562127 0
0.000574478 0.0110961 0
0.0004056 0.00426515 0
-0.000153658 0.000123499 0
0 0 0
0 0 0
0.00111563 0.0017269 0
0.000550793 0.000449736 0
-0.000449254 0.00194405 0
0 0 0
0 0 0
0 0 0
0 0 0
0 0 0
0 0 0
0 0 0
-0.000928237 0.00113853 0
-0.000897713 0.000302166 0
0 0 0
0 0 0
0 0 0
0 0 0
0 0 0
0 0 0
0 0 0
-0.00166333 -0.00668259 0
-0.00298914 -0.00501376 0
2.73629e-05 -0.00380144 0
0.00159781 -0.00555551 0
0.00282888 0.00609433 0
0.00357226 0.00918522 0
0.000518462 0.00085575 0
-0.000593616 -0.000633411 0
0 0 0
0 0 0
0.000912039 0.00236374 0
0.00113311 0.00175636 0
0 0 0
0 0 0
0 0 0
0 0 0
0 0 0
0 0 0
-0.000882118 0.00104668 0
-0.000537337 0.000689857 0
0.000385091 -0.000309865 0
0 0 0
0 0 0
0 0 0
0 0 0
0 0 0
0 0 0
-0.0014012 0.00137646 0
-0.00376419 -0.00247239 0
-0.00823042 -0.00361275 0
-0.00592543 -0.0135851 0
0.000366291 -0.00273793 0
-0.00150251 0.00379384 0
0.00104916 0.00911968 0
0.00505645 0.00141483 0
0.00208177 0.00114516 0
0 0 0
0 0 0
0.000883771 0.00131801 0
0.00109832 0.00164274 0
-0.00424902 0.00380012 0
-0.00760536 -0.000197773 0
-0.00564403 -0.00103406 0
-0.00562742 0.000941854 0
-0.00768806 0.000429869 0
-0.00672711 -0.000878908 0
-0.00462079 0.00128782 0
-0.00619806 0.000763134 0
-0.00673602 -0.000782573 0
-0.00534463 0.000106676 0
-0.0071257 0.00114693 0
-0.00812105 -0.000543547 0
-0.00571514 -0.00108119 0
-0.00573745 0.00121946 0
-0.0089154 0.00123895 0
-0.00642732 -0.000338995 0
-0.00399826 0.00201591 0
-0.00966204 -0.000113926 0
-0.0127446 -0.0167314 0
-0.00522446 -0.00969672 0
-0.00126054 0.00807383 0
-0.000255501 0.000393771 0
0.00116748 0.00166855 0
-9.79824e-05 0.00537338 0
0 0 0
0 0 0
0 0 0
-0.00236957 0.00639959 0
-0.00502938 0.00849769 0
-0.00536318 0.000202479 0
-0.00732854 -0.000916781 0
-0.00734164 0.000919337 0
-0.00528449 0.000385417 0
-0.00624209 -0.000971186 0
-0.00746989 0.000167781 0
-0.00513391 0.00103786 0
-0.00539727 0.000255844 0
-0.00803038 0.000356038 0
-0.00649709 0.00123843 0
-0.00550023 -0.000529019 0
-0.00790703 -0.00105744 0
-0.00788454 0.00109113 0
-0.00470636 0.00109154 0
-0.00579378 -0.00199165 0
-0.00703084 0.00170866 0
-0.0016121 -0.0018977 0
-0.00324513 -0.0080079 0
-0.00382943 -0.0234686 0
0.00173722 0.00755988 0
-0.00629539 0.00628525 0
-0.0141975 0.00177789 0
-0.00788473 0.001485 0
-0.00104171 -0.0016531 0
0 0 0
0 0 0
0.00173202 0.00838245 0
0.00180925 0.00870563 0
0 0 0
0 0 0
0 0 0
0 0 0
0 0 0
0 0 0
0 0 0
0.000492242 0.00118885 0
0.000458479 0.000894795 0
0 0 0
0 0 0
0 0 0
0 0 0
0 0 0
0 0 0
0 0 0
-0.00137413 -0.00247573 0
0.0061457 -0.0148188 0
0.00800893 -0.0173795 0
-0.00199277 0.00781698 0
-0.0118866 0.0238161 0
-0.0117203 -0.002911 0
-0.00502361 -0.00674876 0
-0.0027565 -0.00644942 0
0 0 0
0 0 0
-0.000259145 0.00552382 0
0.00374171 0.00642424 0
0.00412515 0.00481182 0
0.000763034 0.00016759 0
0.000175406 0.000185614 0
0 0 0
0 0 0
0 0 0
0 0 0
0 0 0
0.000476044 0.00160417 0
0.000177731 0.000665338 0
-0.000550728 9.50866e-06 0
-0.000306884 -0.000172554 0
0 0 0
0 0 0
0 0 0
0 0 0
0 0 0
-0.000784361 -0.0287771 0
-0.000453464 -0.00588296 0
-0.00635001 0.0200905 0
-0.00933184 0.0188148 0
-0.000864803 -0.00795825 0
0.00497535 -0.0105256 0
-0.00152479 -0.00114536 0
-0.00987223 -0.000584631 0
-0.00507451 -0.00257136 0
-0.000664038 0.00414882 0
-0.00295956 0.00668135 0
-0.000389457 0.00271781 0
0.00462463 0.00100813 0
0.00187493 0.00180483 0
0.00153192 -0.00106847 0
0.00471039 -0.00098107 0
0.00378423 0.00161367 0
0.000734551 0.000420802 0
0.00284611 -0.00161675 0
0.00589947 0.00132594 0
0.00266945 0.00309596 0
0.00116687 -0.00121843 0
0.00650765 -0.00266226 0
0.00627513 0.00240757 0
-6.47747e-05 0.00153299 0
0.00321522 -0.00385151 0
0.00914988 1.11022e-05 0
0.00250346 0.00428886 0
-0.0110517 -0.0174486 0
-0.0080853 -0.0184912 0
0.0232944 0.0151327 0
0.0503488 0.00333633 0
0.0490256 -0.00405411 0
0.0353594 -0.00511644 0
0.0341489 0.00403339 0
0.0386947 -0.000678287 0
0.0338956 -0.00265875 0
0.0316924 0.00125066 0
0.0396235 0.00401182 0
0.0421814 -0.0021439 0
0.0405232 0.000864258 0
0.0438671 0.00147958 0
0.0443812 -0.00113876 0
0.041203 -0.000984438 0
0.0421301 0.00164343 0
0.0451784 0.000350771 0
0.0430674 -0.00173929 0
0.0409215 0.000357527 0
0.0451536 0.0025125 0
0.0473819 -0.00113681 0
0.0418 -0.00250679 0
0.0417243 0.00254754 0
0.0480632 0.00159531 0
0.0447834 -0.00386872 0
0.0388505 0.000107504 0
0.0454953 0.00433598 0
0.0489335 -0.00207255 0
0.023596 -0.0152856 0

