# vtk DataFile Version 4.0
SiwiRVisFile
ASCII
DATASET STRUCTURED_POINTS
DIMENSIONS 28 14 1
ORIGIN 0 0 0
SPACING 1 1 1
POINT_DATA 392

SCALARS flags double 1
LOOKUP_TABLE default
1
1
1
1
1
1
1
1
1
1
1
1
1
1
1
1
1
1
1
1
1
1
1
1
1
1
1
1
1
1
1
1
1
1
1
1
1
1
1
1
1
1
1
1
1
1
1
1
1
1
1
1
1
1
1
1
1
1
1
1
1
1
1
1
1
1
1
1
1
1
1
1
1
1
1
1
1
1
1
1
1
1
1
1
1
1
1
1
1
1
1
1
1
1
1
1
1
1
1
1
1
1
1
1
1
1
1
1
1
1
1
1
1
1
1
1
1
1
1
1
1
1
1
1
1
1
1
1
1
1
1
1
1
1
1
1
1
1
1
1
1
1
1
1
1
1
1
1
1
1
1
1
1
1
1
1
1
1
1
1
1
1
1
1
1
1
1
1
1
1
1
1
1
1
1
1
1
1
1
1
1
1
1
1
1
1
1
1
1
1
1
1
1
1
1
1
1
1
1
1
1
1
1
1
1
1
1
1
1
1
1
1
1
1
1
1
1
1
1
1
1
1
1
1
1
1
1
1
1
1
1
1
1
1
1
1
1
1
1
1
1
1
1
1
1
1
1
1
1
1
1
1
1
1
1
1
1
1
1
1
1
1
1
1
1
1
1
1
1
1
1
1
1
1
1
1
1
1
1
1
1
1
1
1
1
1
1
1
1
1
1
1
1
1
1
1
1
1
1
1
1
1
1
1
1
1
1
1
1
1
1
1
1
1
1
1
1
1
1
1
1
1
1
1
1
1
1
1
1
1
1
1
1
1
1
1
1
1
1
1
1
1
1
1
1
1
1
1
1
1
1
1
1
1
1
1
1
1
1
1
1
1
1
1
1
1
1
1
1
1
1
1
1
1
1
1
1
1
1
1
1
1
1
1
1
1
1
1
1
1
1
1

SCALARS density double 1
LOOKUP_TABLE default
0.987837
0.980741
0.979945
0.998752
0.998193
0.998091
0.998056
1.00046
1.00123
1.00056
1.00299
1.00558
1.00504
1.00505
1.00609
1.00603
1.00589
1.00715
1.00827
1.00903
1.0077
1.01236
1.01751
1.01487
1.01086
1.01578
1.01794
1.01194
0.98499
0.978596
0.982713
0.999478
0.995625
0.998557
0.999981
0.999238
1.00016
1.00209
1.00317
1.00414
1.00565
1.00586
1.00549
1.00543
1.00654
1.00761
1.00753
1.0087
1.00858
1.01253
1.01632
1.01494
1.01259
1.01485
1.01637
1.01367
0.976575
0.987046
0
0
0
0
0
0
0
0
0
0
1.00563
1.00562
1.00535
0
0
0
0
0
0
0
1.01031
1.01375
1.01927
1.01328
1.01036
1.01775
0.96728
0.969727
0
0
0
0
0
0
0
0
0
0
0
1.0057
1.00553
0
0
0
0
0
0
0
0
1.01449
1.01467
1.01475
1.01438
1.01424
0.975276
0.961985
0
0
0
1.00497
0.999898
1.00525
1.00813
1.00488
1.00456
1.00778
1.00848
1.00463
1.00506
1.00918
1.00724
1.00435
1.00936
1.01207
1.00757
1.01142
1.01829
1.01538
1.00937
1.01605
1.0194
1.01114
0.967623
0.970605
0
0
0
0.999851
1.00526
1.00733
1.00279
1.00486
1.00955
1.00598
1.00432
1.00793
1.00797
1.0047
1.00623
1.00942
1.00794
1.00743
1.01133
1.01471
1.01259
1.01418
1.01626
1.01386
1.01308
1.01678
0.963582
0.977937
0.972023
0
0
1.00485
1.00867
1.00158
0
0
0
0
0
0
0
1.00505
1.00647
0
0
0
0
0
0
0
1.02041
1.01332
1.00939
1.01781
0.974026
0.964259
0.966783
0.974568
0
0
1.00005
1.00125
0
0
0
0
0
0
1.00653
1.00688
1.00508
0
0
0
0
0
0
1.01408
1.01082
1.01619
1.01872
1.00993
0.973716
0.961014
0.9668
0.978223
0
0
0.996096
1.00292
1.00182
0.990927
0.999168
1.00535
1.00392
1.0035
1.00609
1.00759
1.00597
1.0038
1.00691
1.00977
1.00581
1.01013
1.01637
1.0159
1.00977
1.0149
1.01932
1.01215
0.961589
0.978468
0.972382
0.958973
0
0
0
0.996972
0.998988
0.996392
1.00009
1.00052
1.00418
1.00773
1.00508
1.00388
1.00722
1.00806
1.00414
1.00556
1.0106
1.01352
1.00936
1.0143
1.01943
1.012
1.00765
1.02262
0.967478
0.974914
0.969879
0.963236
0.970717
0
0
0.990961
0.992572
0
0
0
0
0
0
0
1.00481
1.00747
0
0
0
0
0
0
0
1.01482
1.00978
1.01647
0.977689
0.953838
0.965032
0.983718
0.968654
0
0
0.986475
0.982933
0.99325
0.993797
0.986779
0
0
0
0
0
1.00059
1.00534
1.00555
1.00182
0
0
0
0
0
1.02901
1.0045
0.964472
0.966978
0.969562
0.969652
0.969146
0.976515
0.985331
0.989371
0.989071
0.989104
0.987753
0.993754
0.994295
0.99389
0.995289
1.00081
1.00148
1.00028
1.00451
1.00668
1.00177
1.00409
1.01437
1.01002
1.00362
1.0192
1.01199
1.0119
0.958419
0.984727
0.971799
0.957447
0.973089
0.982218
0.980327
0.988058
0.992793
0.987126
0.988006
0.994347
0.992991
0.995489
0.996169
0.997026
1.00262
1.0053
1.00013
1.0016
1.01062
1.0069
1.00093
1.01281
1.01989
1.00768
0.996523
1.03471

VECTORS velocity double
-0.000511279 0.000519226 0
-0.00553066 0.00240596 0
-0.00840339 9.82514e-06 0
-0.00803436 -0.0004989 0
-0.007079 -8.6287e-05 0
-0.0077267 0.000509168 0
-0.00830002 -8.35449e-05 0
-0.00758534 -0.000370089 0
-0.00733118 0.000198973 0
-0.00799637 0.00026544 0
-0.00802542 -0.000196567 0
-0.0073584 -0.000259992 0
-0.00730414 0.000234466 0
-0.00687878 -0.000494013 0
-0.00610963 2.62347e-06 0
-0.00644358 0.000214677 0
-0.00649974 -0.000146375 0
-0.00616648 -6.27234e-05 0
-0.00634715 0.000192318 0
-0.00659262 -2.45294e-05 0
-0.00625107 -0.000217936 0
-0.0062296 0.000299531 0
-0.00632752 -0.000323172 0
-0.00421856 -0.00108636 0
-0.0022738 -0.00022166 0
-0.00171289 -4.49606e-05 0
-0.00101171 -0.000573994 0
-4.29149e-05 -2.37823e-05 0
-0.00246458 0.00541631 0
-0.00726802 0.00716526 0
-0.00708645 0.000759121 0
-0.0074542 -0.000648795 0
-0.00841071 -7.79727e-05 0
-0.00776227 0.000485215 0
-0.0071895 -0.000101345 0
-0.00790372 -0.000388864 0
-0.0081583 0.000178885 0
-0.00749272 0.000255501 0
-0.00746405 -0.00025536 0
-0.00813069 -0.000370058 0
-0.00735811 -0.00084623 0
-0.00674453 -0.000741949 0
-0.00683274 -0.000453383 0
-0.00628744 0.000212598 0
-0.00623132 -0.000138508 0
-0.00656461 -7.9188e-05 0
-0.00638407 0.000186227 0
-0.00613839 -4.38799e-05 0
-0.00648019 -0.000161379 0
-0.00650149 0.000167158 0
-0.00563613 -0.00195252 0
-0.00501583 -0.00278689 0
-0.00423058 -0.00226512 0
-0.00226917 -0.00118085 0
-0.00146734 -0.00150602 0
-0.000551635 -0.000964246 0
-0.000681345 0.00961759 0
-0.00125376 0.00587925 0
0 0 0
0 0 0
0 0 0
0 0 0
0 0 0
0 0 0
0 0 0
0 0 0
0 0 0
0 0 0
-0.000827257 -0.000956248 0
-0.000796341 -0.00115511 0
5.68062e-05 -0.000625962 0
0 0 0
0 0 0
0 0 0
0 0 0
0 0 0
0 0 0
0 0 0
-0.000767447 -0.00123356 0
-0.00245511 -0.00182272 0
-0.00297538 -0.00392569 0
-0.00166878 -0.00210979 0
-0.00108846 -0.00145054 0
-0.000330374 -0.00220056 0
0.00185021 0.00836337 0
0.00193162 0.00711911 0
0 0 0
0 0 0
0 0 0
0 0 0
0 0 0
0 0 0
0 0 0
0 0 0
0 0 0
0 0 0
0 0 0
-0.0006584 -0.00159852 0
-0.000639721 -0.00117159 0
0 0 0
0 0 0
0 0 0
0 0 0
0 0 0
0 0 0
0 0 0
0 0 0
-0.00166399 -0.00030763 0
-0.00391121 -0.00278331 0
-0.00356675 -0.00375096 0
-0.000961053 -0.00391791 0
0.000639735 -0.00195908 0
0.000266864 0.00497539 0
0.00030384 0.010519 0
0 0 0
0 0 0
0 0 0
-0.000106053 2.59981e-05 0
-0.00181549 0.00114944 0
-0.00207096 -0.000898541 0
-0.00126384 0.000265377 0
-0.00215664 0.000359475 0
-0.00238743 -0.000188963 0
-0.00187878 -0.000106391 0
-0.00203248 0.000133389 0
-0.00242341 -0.000836945 0
-0.00317454 -0.00116742 0
-0.00350909 -0.00037697 0
-0.00330787 5.10722e-06 0
-0.00396992 0.000498319 0
-0.00481837 0.000107038 0
-0.00426262 -0.000533392 0
-0.00331573 -0.000112713 0
-0.00417725 0.000808953 0
-0.00555065 0.000543054 0
-0.00394997 -0.00069017 0
-0.00229661 -0.000886878 0
-0.00261815 -0.00513969 0
-0.00256356 -0.00642256 0
-0.000817602 -0.00198593 0
-0.00243238 0.00816256 0
-0.00246563 0.00732359 0
0 0 0
0 0 0
0 0 0
-0.0010069 0.00187379 0
-0.000536153 0.000778041 0
-0.00100649 0.000248139 0
-0.00285804 0.000306044 0
-0.00196202 0.000439125 0
-0.00173411 -0.00021512 0
-0.00224033 -0.000112964 0
-0.00208859 0.000162734 0
-0.00210705 -0.000208539 0
-0.00291063 -0.000192645 0
-0.00353931 -0.000193201 0
-0.00439097 0.000823799 0
-0.00434246 0.00058775 0
-0.00349429 0.000125173 0
-0.00405024 -0.000548901 0
-0.00499672 -8.81455e-05 0
-0.00413582 0.000668121 0
-0.00276171 0.000299284 0
-0.003741 -0.00102474 0
-0.00252036 -0.00462769 0
0.00103458 -0.00527924 0
-0.000925272 -0.00372687 0
-0.00154774 -0.00562032 0
0.000573907 0.0110977 0
0.000405868 0.00426662 0
-0.000153433 0.000125596 0
0 0 0
0 0 0
0.00111572 0.00172748 0
0.000550702 0.000450245 0
-0.000449169 0.00194453 0
0 0 0
0 0 0
0 0 0
0 0 0
0 0 0
0 0 0
0 0 0
-0.00092851 0.00113763 0
-0.000897476 0.000301176 0
0 0 0
0 0 0
0 0 0
0 0 0
0 0 0
0 0 0
0 0 0
-0.00166338 -0.00668343 0
-0.00298919 -0.00501441 0
2.74417e-05 -0.00380202 0
0.00159774 -0.00555605 0
0.00282892 0.00609244 0
0.00357233 0.00918365 0
0.000518194 0.000853629 0
-0.000593293 -0.000636058 0
0 0 0
0 0 0
0.000911974 0.00236321 0
0.00113317 0.00175589 0
0 0 0
0 0 0
0 0 0
0 0 0
0 0 0
0 0 0
-0.000881878 0.00104748 0
-0.000537553 0.000690673 0
0.000385319 -0.000309103 0
0 0 0
0 0 0
0 0 0
0 0 0
0 0 0
0 0 0
-0.0014013 0.00137708 0
-0.00376407 -0.0024718 0
-0.0082305 -0.00361236 0
-0.00592539 -0.0135849 0
0.000366283 -0.00273767 0
-0.00150312 0.00379566 0
0.0010496 0.0091218 0
0.00505613 0.00141716 0
0.00208198 0.00114782 0
0 0 0
0 0 0
0.000883812 0.0013186 0
0.00109824 0.00164318 0
-0.00424888 0.00380027 0
-0.00760552 -0.000197954 0
-0.00564388 -0.00103451 0
-0.00562759 0.000941214 0
-0.00768787 0.000429304 0
-0.00672735 -0.000879701 0
-0.00462057 0.00128706 0
-0.00619828 0.000762378 0
-0.0067358 -0.000783104 0
-0.00534484 0.000106124 0
-0.00712547 0.00114643 0
-0.00812131 -0.000544597 0
-0.00571492 -0.00108211 0
-0.00573762 0.00121861 0
-0.00891526 0.0012383 0
-0.00642746 -0.000339623 0
-0.00399816 0.00201547 0
-0.00966212 -0.000114132 0
-0.0127445 -0.0167315 0
-0.00522456 -0.00969674 0
-0.00126041 0.00807206 0
-0.000255172 0.000391387 0
0.00116674 0.00166591 0
-9.74754e-05 0.00537021 0
0 0 0
0 0 0
0 0 0
-0.00236993 0.00639912 0
-0.00502915 0.00849745 0
-0.00536331 0.000202605 0
-0.00732842 -0.000916393 0
-0.00734183 0.000920032 0
-0.00528428 0.000386019 0
-0.00624229 -0.000970442 0
-0.00746972 0.000168508 0
-0.00513408 0.00103862 0
-0.00539706 0.00025624 0
-0.00803059 0.0003564 0
-0.00649689 0.00123896 0
-0.00550047 -0.000528045 0
-0.00790681 -0.00105662 0
-0.00788476 0.00109207 0
-0.00470617 0.00109228 0
-0.0057939 -0.0019911 0
-0.00703075 0.00170906 0
-0.00161216 -0.00189762 0
-0.00324507 -0.0080079 0
-0.00382944 -0.0234688 0
0.00173508 0.00756198 0
-0.00629398 0.00628734 0
-0.0141979 0.00178082 0
-0.00788454 0.00148855 0
-0.00104225 -0.00164918 0
0 0 0
0 0 0
0.00173153 0.00838324 0
0.00180944 0.00870636 0
0 0 0
0 0 0
0 0 0
0 0 0
0 0 0
0 0 0
0 0 0
0.000492345 0.00118847 0
0.000458315 0.000894864 0
0 0 0
0 0 0
0 0 0
0 0 0
0 0 0
0 0 0
0 0 0
-0.0013741 -0.00247571 0
0.00614582 -0.0148187 0
0.00800863 -0.0173793 0
-0.00199376 0.00781463 0
-0.0118863 0.0238137 0
-0.0117209 -0.00291477 0
-0.00502343 -0.00675196 0
-0.00275722 -0.006452 0
0 0 0
0 0 0
-0.000259972 0.00552229 0
0.00374202 0.00642271 0
0.00412463 0.00481016 0
0.000763636 0.000166091 0
0.000174484 0.000184391 0
0 0 0
0 0 0
0 0 0
0 0 0
0 0 0
0.000475859 0.00160346 0
0.00017765 0.000664446 0
-0.000550618 8.59847e-06 0
-0.000307183 -0.000173179 0
0 0 0
0 0 0
0 0 0
0 0 0
0 0 0
-0.000784436 -0.0287773 0
-0.000453514 -0.0058832 0
-0.0063537 0.0200935 0
-0.00933108 0.0188191 0
-0.000865023 -0.0079542 0
0.00497488 -0.010523 0
-0.00152424 -0.00114349 0
-0.00987236 -0.000582953 0
-0.00507396 -0.0025683 0
-0.000664599 0.00415103 0
-0.00295921 0.00668358 0
-0.000389933 0.00271984 0
0.00462482 0.00101 0
0.00187487 0.00180617 0
0.00153204 -0.00106714 0
0.00471047 -0.000979584 0
0.00378408 0.00161503 0
0.000734733 0.000422367 0
0.00284607 -0.00161501 0
0.00589944 0.00132715 0
0.0026693 0.00309709 0
0.00116693 -0.00121736 0
0.00650764 -0.00266158 0
0.00627509 0.00240801 0
-6.46132e-05 0.00153365 0
0.0032152 -0.00385065 0
0.00914977 1.15539e-05 0
0.00250353 0.00428947 0
-0.0110517 -0.0174483 0
-0.00808539 -0.018491 0
0.0232936 0.0151266 0
0.0503479 0.00333125 0
0.0490259 -0.00405724 0
0.0353598 -0.00511857 0
0.0341486 0.00403066 0
0.0386948 -0.000680248 0
0.0338956 -0.00266113 0
0.0316925 0.00124822 0
0.0396232 0.00400903 0
0.0421815 -0.00214593 0
0.0405231 0.000862016 0
0.0438671 0.00147786 0
0.0443812 -0.0011401 0
0.041203 -0.000985921 0
0.0421301 0.00164182 0
0.0451784 0.000349235 0
0.0430674 -0.00174062 0
0.0409216 0.000356214 0
0.0451535 0.00251116 0
0.0473819 -0.00113783 0
0.0418001 -0.00250747 0
0.0417243 0.00254687 0
0.0480631 0.00159457 0
0.0447834 -0.00386928 0
0.0388505 0.000107003 0
0.0454952 0.0043353 0
0.0489336 -0.00207286 0
0.0235961 -0.0152857 0

