# vtk DataFile Version 4.0
SiwiRVisFile
ASCII
DATASET STRUCTURED_POINTS
DIMENSIONS 28 14 1
ORIGIN 0 0 0
SPACING 1 1 1
POINT_DATA 392

SCALARS flags double 1
LOOKUP_TABLE default
1
1
1
1
1
1
1
1
1
1
1
1
1
1
1
1
1
1
1
1
1
1
1
1
1
1
1
1
1
1
1
1
1
1
1
1
1
1
1
1
1
1
1
1
1
1
1
1
1
1
1
1
1
1
1
1
1
1
1
1
1
1
1
1
1
1
1
1
1
1
1
1
1
1
1
1
1
1
1
1
1
1
1
1
1
1
1
1
1
1
1
1
1
1
1
1
1
1
1
1
1
1
1
1
1
1
1
1
1
1
1
1
1
1
1
1
1
1
1
1
1
1
1
1
1
1
1
1
1
1
1
1
1
1
1
1
1
1
1
1
1
1
1
1
1
1
1
1
1
1
1
1
1
1
1
1
1
1
1
1
1
1
1
1
1
1
1
1
1
1
1
1
1
1
1
1
1
1
1
1
1
1
1
1
1
1
1
1
1
1
1
1
1
1
1
1
1
1
1
1
1
1
1
1
1
1
1
1
1
1
1
1
1
1
1
1
1
1
1
1
1
1
1
1
1
1
1
1
1
1
1
1
1
1
1
1
1
1
1
1
1
1
1
1
1
1
1
1
1
1
1
1
1
1
1
1
1
1
1
1
1
1
1
1
1
1
1
1
1
1
1
1
1
1
1
1
1
1
1
1
1
1
1
1
1
1
1
1
1
1
1
1
1
1
1
1
1
1
1
1
1
1
1
1
1
1
1
1
1
1
1
1
1
1
1
1
1
1
1
1
1
1
1
1
1
1
1
1
1
1
1
1
1
1
1
1
1
1
1
1
1
1
1
1
1
1
1
1
1
1
1
1
1
1
1
1
1
1
1
1
1
1
1
1
1
1
1
1
1
1
1
1
1
1
1
1
1
1
1
1
1
1
1
1
1
1
1
1
1
1
1
1

SCALARS density double 1
LOOKUP_TABLE default
0.987837
0.980741
0.979945
0.998752
0.998193
0.998091
0.998056
1.00046
1.00123
1.00056
1.00299
1.00558
1.00504
1.00505
1.00609
1.00603
1.00589
1.00715
1.00827
1.00903
1.0077
1.01236
1.01751
1.01487
1.01086
1.01578
1.01794
1.01194
0.98499
0.978596
0.982713
0.999478
0.995625
0.998557
0.999981
0.999238
1.00016
1.00209
1.00317
1.00414
1.00565
1.00586
1.00549
1.00543
1.00654
1.00761
1.00753
1.0087
1.00858
1.01253
1.01632
1.01494
1.01259
1.01485
1.01637
1.01367
0.976575
0.987046
0
0
0
0
0
0
0
0
0
0
1.00563
1.00562
1.00535
0
0
0
0
0
0
0
1.01031
1.01375
1.01927
1.01328
1.01036
1.01775
0.96728
0.969727
0
0
0
0
0
0
0
0
0
0
0
1.0057
1.00553
0
0
0
0
0
0
0
0
1.01449
1.01467
1.01475
1.01438
1.01424
0.975276
0.961985
0
0
0
1.00497
0.999898
1.00525
1.00813
1.00488
1.00456
1.00778
1.00848
1.00463
1.00506
1.00918
1.00724
1.00435
1.00936
1.01207
1.00757
1.01142
1.01829
1.01538
1.00937
1.01605
1.0194
1.01114
0.967623
0.970605
0
0
0
0.999851
1.00526
1.00733
1.00279
1.00486
1.00955
1.00598
1.00432
1.00793
1.00797
1.0047
1.00623
1.00942
1.00794
1.00743
1.01133
1.01471
1.01259
1.01418
1.01626
1.01386
1.01308
1.01678
0.963582
0.977937
0.972023
0
0
1.00485
1.00867
1.00158
0
0
0
0
0
0
0
1.00505
1.00647
0
0
0
0
0
0
0
1.02041
1.01332
1.00939
1.01781
0.974026
0.964259
0.966783
0.974568
0
0
1.00005
1.00125
0
0
0
0
0
0
1.00653
1.00688
1.00508
0
0
0
0
0
0
1.01408
1.01082
1.01619
1.01872
1.00993
0.973716
0.961014
0.9668
0.978223
0
0
0.996096
1.00292
1.00182
0.990927
0.999168
1.00535
1.00392
1.0035
1.00609
1.00759
1.00597
1.0038
1.00691
1.00977
1.00581
1.01013
1.01637
1.0159
1.00977
1.0149
1.01932
1.01215
0.961589
0.978468
0.972382
0.958973
0
0
0
0.996972
0.998988
0.996392
1.00009
1.00052
1.00418
1.00773
1.00508
1.00388
1.00722
1.00806
1.00414
1.00556
1.0106
1.01352
1.00936
1.0143
1.01943
1.012
1.00765
1.02262
0.967478
0.974914
0.969879
0.963236
0.970717
0
0
0.990961
0.992572
0
0
0
0
0
0
0
1.00481
1.00747
0
0
0
0
0
0
0
1.01482
1.00978
1.01647
0.977689
0.953838
0.965032
0.983718
0.968654
0
0
0.986475
0.982933
0.99325
0.993797
0.986779
0
0
0
0
0
1.00059
1.00534
1.00555
1.00182
0
0
0
0
0
1.02901
1.0045
0.964472
0.966978
0.969562
0.969652
0.969146
0.976515
0.985331
0.989371
0.989071
0.989104
0.987753
0.993754
0.994295
0.99389
0.995289
1.00081
1.00148
1.00028
1.00451
1.00668
1.00177
1.00409
1.01437
1.01002
1.00362
1.0192
1.01199
1.0119
0.958419
0.984727
0.971799
0.957447
0.973089
0.982218
0.980327
0.988058
0.992793
0.987127
0.988006
0.994347
0.992991
0.995489
0.996169
0.997026
1.00262
1.0053
1.00013
1.0016
1.01062
1.0069
1.00093
1.01281
1.01989
1.00768
0.996524
1.03471

VECTORS velocity double
-0.000511434 0.00051965 0
-0.00553055 0.00240627 0
-0.00840343 1.01358e-05 0
-0.00803431 -0.000498644 0
-0.00707904 -8.62812e-05 0
-0.00772667 0.00050894 0
-0.00830004 -8.40044e-05 0
-0.00758534 -0.000370768 0
-0.00733117 0.000198132 0
-0.00799638 0.00026444 0
-0.00802543 -0.00019772 0
-0.0073584 -0.000261281 0
-0.00730414 0.000233119 0
-0.00687879 -0.000495499 0
-0.0061096 9.51745e-07 0
-0.00644361 0.000212702 0
-0.00649976 -0.000148696 0
-0.00616648 -6.50731e-05 0
-0.00634713 0.000190068 0
-0.00659266 -2.67268e-05 0
-0.00625104 -0.000220002 0
-0.00622961 0.00029767 0
-0.00632754 -0.000324935 0
-0.0042186 -0.00108813 0
-0.00227373 -0.000223201 0
-0.00171292 -4.64038e-05 0
-0.0010117 -0.000575432 0
-4.29169e-05 -2.5166e-05 0
-0.00246465 0.00541587 0
-0.00726796 0.00716485 0
-0.00708653 0.000758805 0
-0.00745413 -0.000649028 0
-0.00841075 -7.79754e-05 0
-0.00776226 0.000485451 0
-0.00718951 -0.000100889 0
-0.00790371 -0.000388209 0
-0.00815831 0.000179739 0
-0.00749272 0.000256527 0
-0.00746404 -0.000254228 0
-0.00813072 -0.000368799 0
-0.00735807 -0.000844908 0
-0.00674455 -0.000740538 0
-0.00683274 -0.000451797 0
-0.00628744 0.000214579 0
-0.00623135 -0.000136233 0
-0.00656462 -7.68563e-05 0
-0.00638406 0.000188516 0
-0.0061384 -4.16866e-05 0
-0.00648016 -0.000159354 0
-0.00650152 0.000169032 0
-0.0056361 -0.00195086 0
-0.00501587 -0.00278534 0
-0.00423054 -0.00226368 0
-0.00226919 -0.0011795 0
-0.00146732 -0.00150471 0
-0.000551643 -0.000962936 0
-0.00068162 0.00961812 0
-0.00125355 0.00587979 0
0 0 0
0 0 0
0 0 0
0 0 0
0 0 0
0 0 0
0 0 0
0 0 0
0 0 0
0 0 0
-0.000827238 -0.000957485 0
-0.000796398 -0.00115639 0
5.6872e-05 -0.000627369 0
0 0 0
0 0 0
0 0 0
0 0 0
0 0 0
0 0 0
0 0 0
-0.000767452 -0.00123512 0
-0.00245513 -0.00182406 0
-0.00297537 -0.00392693 0
-0.00166881 -0.00211095 0
-0.00108843 -0.00145166 0
-0.000330397 -0.00220168 0
0.00185034 0.00836272 0
0.00193149 0.00711849 0
0 0 0
0 0 0
0 0 0
0 0 0
0 0 0
0 0 0
0 0 0
0 0 0
0 0 0
0 0 0
0 0 0
-0.000658425 -0.00159741 0
-0.000639702 -0.00117042 0
0 0 0
0 0 0
0 0 0
0 0 0
0 0 0
0 0 0
0 0 0
0 0 0
-0.00166397 -0.000306449 0
-0.00391119 -0.00278233 0
-0.00356678 -0.00375005 0
-0.000961045 -0.00391702 0
0.000639749 -0.00195821 0
0.000266564 0.00497608 0
0.000304191 0.0105197 0
0 0 0
0 0 0
0 0 0
-0.000106063 2.62737e-05 0
-0.00181548 0.00114968 0
-0.00207096 -0.000898349 0
-0.00126382 0.000265456 0
-0.00215667 0.000359372 0
-0.00238738 -0.000189218 0
-0.00187887 -0.000106911 0
-0.0020324 0.000132623 0
-0.0024235 -0.000837951 0
-0.00317444 -0.00116839 0
-0.00350919 -0.000377842 0
-0.00330775 4.26356e-06 0
-0.00397002 0.000497244 0
-0.0048183 0.000105702 0
-0.00426272 -0.000534874 0
-0.00331562 -0.000114102 0
-0.00417734 0.00080766 0
-0.00555061 0.000541831 0
-0.00395 -0.000691201 0
-0.00229661 -0.000887681 0
-0.00261815 -0.00514032 0
-0.00256354 -0.00642316 0
-0.000817661 -0.00198654 0
-0.00243217 0.00816188 0
-0.00246581 0.00732281 0
0 0 0
0 0 0
0 0 0
-0.00100689 0.00187351 0
-0.000536147 0.000777789 0
-0.0010065 0.000247941 0
-0.00285803 0.000305966 0
-0.00196205 0.00043923 0
-0.00173406 -0.000214869 0
-0.0022404 -0.000112455 0
-0.00208851 0.000163485 0
-0.00210714 -0.000207576 0
-0.00291051 -0.000191752 0
-0.00353942 -0.000192426 0
-0.00439088 0.0008246 0
-0.00434255 0.000588857 0
-0.00349422 0.000126514 0
-0.0040503 -0.000547497 0
-0.00499666 -8.67713e-05 0
-0.00413591 0.000669509 0
-0.0027616 0.000300529 0
-0.00374104 -0.00102386 0
-0.00252031 -0.00462709 0
0.00103456 -0.00527884 0
-0.000925285 -0.00372653 0
-0.00154771 -0.00561998 0
0.000573572 0.0110986 0
0.000406048 0.00426744 0
-0.000153344 0.000126889 0
0 0 0
0 0 0
0.00111572 0.00172779 0
0.000550703 0.000450502 0
-0.000449174 0.00194476 0
0 0 0
0 0 0
0 0 0
0 0 0
0 0 0
0 0 0
0 0 0
-0.000928717 0.00113695 0
-0.000897301 0.000300473 0
0 0 0
0 0 0
0 0 0
0 0 0
0 0 0
0 0 0
0 0 0
-0.00166344 -0.00668379 0
-0.00298918 -0.00501462 0
2.74841e-05 -0.00380215 0
0.00159767 -0.00555616 0
0.00282886 0.0060914 0
0.00357245 0.00918273 0
0.000517968 0.000852302 0
-0.000593044 -0.000637829 0
0 0 0
0 0 0
0.000912007 0.00236293 0
0.00113312 0.00175564 0
0 0 0
0 0 0
0 0 0
0 0 0
0 0 0
0 0 0
-0.000881702 0.00104808 0
-0.00053771 0.000691268 0
0.000385485 -0.000308585 0
0 0 0
0 0 0
0 0 0
0 0 0
0 0 0
0 0 0
-0.00140133 0.00137733 0
-0.00376403 -0.00247161 0
-0.00823052 -0.00361232 0
-0.00592541 -0.0135849 0
0.000366319 -0.00273775 0
-0.00150355 0.00379672 0
0.00104991 0.0091231 0
0.00505586 0.00141866 0
0.0020822 0.00114961 0
0 0 0
0 0 0
0.00088392 0.00131892 0
0.00109812 0.00164341 0
-0.00424872 0.00380033 0
-0.00760569 -0.000198152 0
-0.00564373 -0.00103491 0
-0.00562774 0.00094068 0
-0.00768771 0.00042885 0
-0.00672753 -0.000880308 0
-0.0046204 0.00128649 0
-0.00619844 0.000761848 0
-0.00673565 -0.000783435 0
-0.00534498 0.00010584 0
-0.00712531 0.00114624 0
-0.00812147 -0.000545131 0
-0.00571479 -0.00108257 0
-0.00573771 0.00121823 0
-0.00891519 0.00123803 0
-0.00642753 -0.000339861 0
-0.00399812 0.00201538 0
-0.00966213 -0.000114069 0
-0.0127445 -0.0167314 0
-0.00522465 -0.0096965 0
-0.00126042 0.00807099 0
-0.000254884 0.000389877 0
0.0011662 0.00166416 0
-9.71022e-05 0.00536806 0
0 0 0
0 0 0
0 0 0
-0.00237027 0.00639887 0
-0.00502892 0.00849733 0
-0.00536346 0.000202759 0
-0.0073283 -0.000916045 0
-0.00734199 0.000920612 0
-0.0052841 0.000386504 0
-0.00624246 -0.000969873 0
-0.00746959 0.000169045 0
-0.0051342 0.00103914 0
-0.00539691 0.000256467 0
-0.00803073 0.000356548 0
-0.00649674 0.00123915 0
-0.00550063 -0.000527556 0
-0.00790669 -0.00105622 0
-0.00788488 0.00109251 0
-0.00470607 0.00109259 0
-0.00579397 -0.00199089 0
-0.00703068 0.00170909 0
-0.00161222 -0.00189778 0
-0.00324508 -0.00800805 0
-0.00382936 -0.0234691 0
0.0017336 0.0075633 0
-0.00629298 0.00628871 0
-0.0141982 0.00178278 0
-0.00788438 0.00149099 0
-0.00104263 -0.00164647 0
0 0 0
0 0 0
0.00173113 0.00838376 0
0.00180964 0.00870683 0
0 0 0
0 0 0
0 0 0
0 0 0
0 0 0
0 0 0
0 0 0
0.000492426 0.00118826 0
0.000458163 0.00089504 0
0 0 0
0 0 0
0 0 0
0 0 0
0 0 0
0 0 0
0 0 0
-0.00137396 -0.00247548 0
0.0061459 -0.0148185 0
0.00800838 -0.017379 0
-0.00199451 0.0078131 0
-0.011886 0.0238121 0
-0.0117213 -0.00291732 0
-0.00502331 -0.00675417 0
-0.00275771 -0.00645381 0
0 0 0
0 0 0
-0.000260602 0.00552122 0
0.00374229 0.00642165 0
0.00412422 0.00480898 0
0.000764111 0.000164982 0
0.000173774 0.000183474 0
0 0 0
0 0 0
0 0 0
0 0 0
0 0 0
0.000475653 0.00160281 0
0.0001776 0.00066358 0
-0.000550517 7.71218e-06 0
-0.00030746 -0.00017382 0
0 0 0
0 0 0
0 0 0
0 0 0
0 0 0
-0.000784633 -0.0287777 0
-0.00045345 -0.0058835 0
-0.00635621 0.0200954 0
-0.00933056 0.018822 0
-0.000865176 -0.00795145 0
0.00497456 -0.0105212 0
-0.00152386 -0.00114217 0
-0.00987246 -0.000581799 0
-0.00507354 -0.00256608 0
-0.000665029 0.00415258 0
-0.00295893 0.00668516 0
-0.000390301 0.00272128 0
0.00462497 0.00101137 0
0.0018748 0.00180715 0
0.00153214 -0.00106613 0
0.00471052 -0.000978483 0
0.00378399 0.00161608 0
0.000734866 0.000423556 0
0.00284607 -0.00161364 0
0.0058994 0.00132816 0
0.00266917 0.00309813 0
0.00116697 -0.00121637 0
0.00650764 -0.00266091 0
0.00627504 0.00240842 0
-6.44437e-05 0.00153434 0
0.00321518 -0.00384977 0
0.00914963 1.20484e-05 0
0.00250366 0.00429013 0
-0.0110518 -0.0174479 0
-0.00808549 -0.0184907 0
0.0232931 0.0151225 0
0.0503473 0.00332785 0
0.049026 -0.00405936 0
0.0353602 -0.00512002 0
0.0341483 0.00402873 0
0.0386949 -0.000681618 0
0.0338956 -0.00266285 0
0.0316926 0.00124651 0
0.039623 0.00400704 0
0.0421816 -0.00214737 0
0.0405231 0.000860367 0
0.0438672 0.0014766 0
0.0443813 -0.00114111 0
0.041203 -0.000987032 0
0.04213 0.00164058 0
0.0451784 0.000348066 0
0.0430674 -0.00174167 0
0.0409216 0.000355125 0
0.0451534 0.00250995 0
0.047382 -0.00113877 0
0.0418001 -0.00250813 0
0.0417243 0.00254621 0
0.0480631 0.00159381 0
0.0447835 -0.00386986 0
0.0388505 0.000106456 0
0.0454951 0.00433455 0
0.0489336 -0.00207322 0
0.0235966 -0.015286 0

