# vtk DataFile Version 4.0
SiwiRVisFile
ASCII
DATASET STRUCTURED_POINTS
DIMENSIONS 28 14 1
ORIGIN 0 0 0
SPACING 1 1 1
POINT_DATA 392

SCALARS flags double 1
LOOKUP_TABLE default
1
1
1
1
1
1
1
1
1
1
1
1
1
1
1
1
1
1
1
1
1
1
1
1
1
1
1
1
1
1
1
1
1
1
1
1
1
1
1
1
1
1
1
1
1
1
1
1
1
1
1
1
1
1
1
1
1
1
1
1
1
1
1
1
1
1
1
1
1
1
1
1
1
1
1
1
1
1
1
1
1
1
1
1
1
1
1
1
1
1
1
1
1
1
1
1
1
1
1
1
1
1
1
1
1
1
1
1
1
1
1
1
1
1
1
1
1
1
1
1
1
1
1
1
1
1
1
1
1
1
1
1
1
1
1
1
1
1
1
1
1
1
1
1
1
1
1
1
1
1
1
1
1
1
1
1
1
1
1
1
1
1
1
1
1
1
1
1
1
1
1
1
1
1
1
1
1
1
1
1
1
1
1
1
1
1
1
1
1
1
1
1
1
1
1
1
1
1
1
1
1
1
1
1
1
1
1
1
1
1
1
1
1
1
1
1
1
1
1
1
1
1
1
1
1
1
1
1
1
1
1
1
1
1
1
1
1
1
1
1
1
1
1
1
1
1
1
1
1
1
1
1
1
1
1
1
1
1
1
1
1
1
1
1
1
1
1
1
1
1
1
1
1
1
1
1
1
1
1
1
1
1
1
1
1
1
1
1
1
1
1
1
1
1
1
1
1
1
1
1
1
1
1
1
1
1
1
1
1
1
1
1
1
1
1
1
1
1
1
1
1
1
1
1
1
1
1
1
1
1
1
1
1
1
1
1
1
1
1
1
1
1
1
1
1
1
1
1
1
1
1
1
1
1
1
1
1
1
1
1
1
1
1
1
1
1
1
1
1
1
1
1
1
1
1
1
1
1
1
1
1
1
1
1
1
1
1
1
1
1
1
1

SCALARS density double 1
LOOKUP_TABLE default
0.987837
0.980741
0.979945
0.998752
0.998193
0.998091
0.998056
1.00046
1.00123
1.00056
1.00299
1.00558
1.00504
1.00505
1.00609
1.00603
1.00589
1.00715
1.00827
1.00903
1.0077
1.01236
1.01751
1.01487
1.01086
1.01578
1.01794
1.01194
0.98499
0.978596
0.982713
0.999478
0.995625
0.998557
0.999981
0.999238
1.00016
1.00209
1.00317
1.00414
1.00565
1.00586
1.00549
1.00543
1.00654
1.00761
1.00753
1.0087
1.00858
1.01253
1.01632
1.01494
1.01259
1.01485
1.01637
1.01367
0.976575
0.987046
0
0
0
0
0
0
0
0
0
0
1.00563
1.00562
1.00535
0
0
0
0
0
0
0
1.01031
1.01375
1.01927
1.01328
1.01036
1.01775
0.96728
0.969727
0
0
0
0
0
0
0
0
0
0
0
1.0057
1.00553
0
0
0
0
0
0
0
0
1.01449
1.01467
1.01475
1.01438
1.01424
0.975276
0.961985
0
0
0
1.00497
0.999898
1.00525
1.00813
1.00488
1.00456
1.00778
1.00848
1.00463
1.00506
1.00918
1.00724
1.00435
1.00936
1.01207
1.00757
1.01142
1.01829
1.01538
1.00937
1.01605
1.0194
1.01114
0.967623
0.970605
0
0
0
0.999851
1.00526
1.00733
1.00279
1.00486
1.00955
1.00598
1.00432
1.00793
1.00797
1.0047
1.00623
1.00942
1.00794
1.00743
1.01133
1.01471
1.01259
1.01418
1.01626
1.01386
1.01308
1.01678
0.963582
0.977937
0.972023
0
0
1.00485
1.00867
1.00158
0
0
0
0
0
0
0
1.00505
1.00647
0
0
0
0
0
0
0
1.02041
1.01332
1.00939
1.01781
0.974026
0.964259
0.966783
0.974568
0
0
1.00005
1.00125
0
0
0
0
0
0
1.00653
1.00688
1.00508
0
0
0
0
0
0
1.01408
1.01082
1.01619
1.01872
1.00993
0.973716
0.961014
0.9668
0.978223
0
0
0.996096
1.00292
1.00182
0.990927
0.999168
1.00535
1.00392
1.0035
1.00609
1.00759
1.00597
1.0038
1.00691
1.00977
1.00581
1.01013
1.01637
1.0159
1.00977
1.0149
1.01932
1.01215
0.961589
0.978468
0.972382
0.958973
0
0
0
0.996972
0.998988
0.996392
1.00009
1.00052
1.00418
1.00773
1.00508
1.00388
1.00722
1.00806
1.00414
1.00556
1.0106
1.01352
1.00936
1.0143
1.01943
1.012
1.00765
1.02262
0.967478
0.974914
0.969879
0.963236
0.970717
0
0
0.990961
0.992572
0
0
0
0
0
0
0
1.00481
1.00747
0
0
0
0
0
0
0
1.01482
1.00978
1.01647
0.977689
0.953838
0.965032
0.983718
0.968654
0
0
0.986475
0.982933
0.99325
0.993797
0.986779
0
0
0
0
0
1.00059
1.00534
1.00555
1.00182
0
0
0
0
0
1.02901
1.0045
0.964472
0.966978
0.969562
0.969652
0.969146
0.976515
0.985331
0.989371
0.989071
0.989104
0.987753
0.993754
0.994295
0.99389
0.995289
1.00081
1.00148
1.00028
1.00451
1.00668
1.00177
1.00409
1.01437
1.01002
1.00362
1.0192
1.01199
1.0119
0.958419
0.984727
0.971799
0.957447
0.973089
0.982218
0.980327
0.988058
0.992793
0.987127
0.988006
0.994347
0.992991
0.995489
0.996169
0.997026
1.00262
1.0053
1.00013
1.0016
1.01062
1.0069
1.00093
1.01281
1.01989
1.00768
0.996524
1.03471

VECTORS velocity double
-0.000511393 0.000519542 0
-0.00553058 0.0024062 0
-0.00840342 1.00837e-05 0
-0.00803432 -0.000498663 0
-0.00707903 -8.62219e-05 0
-0.00772668 0.00050907 0
-0.00830003 -8.38021e-05 0
-0.00758534 -0.000370497 0
-0.00733117 0.000198449 0
-0.00799637 0.000264803 0
-0.00802543 -0.000197311 0
-0.0073584 -0.000260832 0
-0.00730414 0.000233582 0
-0.00687879 -0.000494995 0
-0.00610961 1.51024e-06 0
-0.0064436 0.000213352 0
-0.00649975 -0.00014794 0
-0.00616648 -6.43139e-05 0
-0.00634713 0.000190789 0
-0.00659265 -2.60287e-05 0
-0.00625105 -0.000219352 0
-0.0062296 0.000298249 0
-0.00632754 -0.000324393 0
-0.00421859 -0.00108759 0
-0.00227376 -0.000222739 0
-0.00171291 -4.59767e-05 0
-0.0010117 -0.000575009 0
-4.29155e-05 -2.4758e-05 0
-0.00246463 0.00541598 0
-0.00726798 0.00716495 0
-0.00708651 0.000758857 0
-0.00745415 -0.000649013 0
-0.00841074 -7.80348e-05 0
-0.00776226 0.000485316 0
-0.00718951 -0.00010109 0
-0.00790371 -0.000388469 0
-0.00815831 0.000179418 0
-0.00749272 0.000256154 0
-0.00746404 -0.000254629 0
-0.00813071 -0.000369237 0
-0.00735808 -0.000845362 0
-0.00674454 -0.000741017 0
-0.00683274 -0.000452328 0
-0.00628744 0.000213926 0
-0.00623134 -0.000136974 0
-0.00656462 -7.76096e-05 0
-0.00638406 0.000187783 0
-0.0061384 -4.23834e-05 0
-0.00648017 -0.000159991 0
-0.00650151 0.000168449 0
-0.00563611 -0.00195137 0
-0.00501586 -0.00278581 0
-0.00423055 -0.00226411 0
-0.00226918 -0.0011799 0
-0.00146733 -0.00150509 0
-0.000551641 -0.00096332 0
-0.000681544 0.00961798 0
-0.00125361 0.00587966 0
0 0 0
0 0 0
0 0 0
0 0 0
0 0 0
0 0 0
0 0 0
0 0 0
0 0 0
0 0 0
-0.000827243 -0.000957059 0
-0.00079638 -0.00115595 0
5.68509e-05 -0.000626897 0
0 0 0
0 0 0
0 0 0
0 0 0
0 0 0
0 0 0
0 0 0
-0.00076745 -0.00123464 0
-0.00245512 -0.00182365 0
-0.00297538 -0.00392656 0
-0.0016688 -0.00211061 0
-0.00108844 -0.00145134 0
-0.000330389 -0.00220136 0
0.00185032 0.00836289 0
0.00193151 0.00711866 0
0 0 0
0 0 0
0 0 0
0 0 0
0 0 0
0 0 0
0 0 0
0 0 0
0 0 0
0 0 0
0 0 0
-0.000658417 -0.00159779 0
-0.000639707 -0.00117082 0
0 0 0
0 0 0
0 0 0
0 0 0
0 0 0
0 0 0
0 0 0
0 0 0
-0.00166398 -0.000306805 0
-0.0039112 -0.00278262 0
-0.00356677 -0.00375031 0
-0.000961046 -0.00391727 0
0.000639743 -0.00195846 0
0.000266648 0.00497588 0
0.000304093 0.0105195 0
0 0 0
0 0 0
0 0 0
-0.000106054 2.61937e-05 0
-0.00181549 0.00114961 0
-0.00207096 -0.000898398 0
-0.00126383 0.000265446 0
-0.00215665 0.000359426 0
-0.0023874 -0.000189111 0
-0.00187884 -0.000106719 0
-0.00203243 0.000132893 0
-0.00242347 -0.000837606 0
-0.00317447 -0.00116806 0
-0.00350916 -0.000377553 0
-0.00330779 4.53908e-06 0
-0.00396998 0.000497592 0
-0.00481832 0.000106133 0
-0.00426269 -0.000534401 0
-0.00331565 -0.000113663 0
-0.00417731 0.000808063 0
-0.00555062 0.000542206 0
-0.00394999 -0.000690892 0
-0.00229661 -0.000887448 0
-0.00261815 -0.00514015 0
-0.00256355 -0.006423 0
-0.000817642 -0.00198637 0
-0.00243223 0.00816207 0
-0.00246576 0.00732304 0
0 0 0
0 0 0
0 0 0
-0.00100689 0.00187359 0
-0.000536155 0.000777861 0
-0.00100649 0.000247993 0
-0.00285804 0.000305975 0
-0.00196203 0.000439174 0
-0.00173408 -0.000214975 0
-0.00224038 -0.000112643 0
-0.00208854 0.000163219 0
-0.00210711 -0.000207907 0
-0.00291055 -0.000192053 0
-0.00353938 -0.000192682 0
-0.00439091 0.000824339 0
-0.00434252 0.000588499 0
-0.00349424 0.000126082 0
-0.00405028 -0.000547945 0
-0.00499668 -8.72064e-05 0
-0.00413588 0.000669076 0
-0.00276163 0.000300147 0
-0.00374103 -0.00102412 0
-0.00252032 -0.00462725 0
0.00103457 -0.00527894 0
-0.000925279 -0.00372661 0
-0.00154772 -0.00562006 0
0.000573675 0.0110983 0
0.000405991 0.00426719 0
-0.000153367 0.000126487 0
0 0 0
0 0 0
0.00111573 0.0017277 0
0.000550697 0.000450427 0
-0.000449167 0.00194469 0
0 0 0
0 0 0
0 0 0
0 0 0
0 0 0
0 0 0
0 0 0
-0.000928649 0.00113717 0
-0.000897359 0.000300701 0
0 0 0
0 0 0
0 0 0
0 0 0
0 0 0
0 0 0
0 0 0
-0.00166342 -0.0066837 0
-0.00298919 -0.00501457 0
2.74717e-05 -0.00380213 0
0.0015977 -0.00555615 0
0.00282889 0.00609171 0
0.0035724 0.00918301 0
0.000518044 0.000852716 0
-0.000593126 -0.000637265 0
0 0 0
0 0 0
0.000911989 0.00236301 0
0.00113314 0.00175571 0
0 0 0
0 0 0
0 0 0
0 0 0
0 0 0
0 0 0
-0.000881759 0.00104788 0
-0.000537659 0.000691073 0
0.000385431 -0.000308751 0
0 0 0
0 0 0
0 0 0
0 0 0
0 0 0
0 0 0
-0.00140132 0.00137726 0
-0.00376404 -0.00247165 0
-0.00823052 -0.00361231 0
-0.0059254 -0.0135849 0
0.000366304 -0.00273771 0
-0.00150341 0.00379639 0
0.00104981 0.0091227 0
0.00505595 0.00141819 0
0.00208212 0.00114904 0
0 0 0
0 0 0
0.000883878 0.00131882 0
0.00109816 0.00164334 0
-0.00424878 0.00380031 0
-0.00760563 -0.000198082 0
-0.00564378 -0.00103478 0
-0.00562769 0.00094086 0
-0.00768776 0.000429002 0
-0.00672747 -0.000880108 0
-0.00462045 0.00128668 0
-0.00619839 0.000762019 0
-0.0067357 -0.000783331 0
-0.00534493 0.000105922 0
-0.00712536 0.00114628 0
-0.00812142 -0.000544977 0
-0.00571483 -0.00108244 0
-0.00573768 0.00121833 0
-0.00891521 0.0012381 0
-0.00642751 -0.000339803 0
-0.00399813 0.00201539 0
-0.00966213 -0.000114109 0
-0.0127445 -0.0167314 0
-0.00522462 -0.0096966 0
-0.00126041 0.00807132 0
-0.000254982 0.00039035 0
0.00116637 0.00166472 0
-9.72244e-05 0.00536875 0
0 0 0
0 0 0
0 0 0
-0.00237015 0.00639894 0
-0.005029 0.00849736 0
-0.00536341 0.000202704 0
-0.00732834 -0.000916164 0
-0.00734194 0.000920416 0
-0.00528416 0.000386342 0
-0.0062424 -0.000970061 0
-0.00746963 0.000168869 0
-0.00513416 0.00103898 0
-0.00539696 0.000256398 0
-0.00803068 0.00035651 0
-0.00649679 0.00123911 0
-0.00550058 -0.000527697 0
-0.00790673 -0.00105633 0
-0.00788484 0.00109239 0
-0.0047061 0.00109251 0
-0.00579395 -0.00199094 0
-0.00703071 0.0017091 0
-0.0016122 -0.00189771 0
-0.00324507 -0.00800799 0
-0.00382939 -0.023469 0
0.00173408 0.00756289 0
-0.0062933 0.00628828 0
-0.0141981 0.00178215 0
-0.00788444 0.00149021 0
-0.00104251 -0.00164734 0
0 0 0
0 0 0
0.00173126 0.00838359 0
0.00180957 0.00870668 0
0 0 0
0 0 0
0 0 0
0 0 0
0 0 0
0 0 0
0 0 0
0.0004924 0.00118832 0
0.000458215 0.000894972 0
0 0 0
0 0 0
0 0 0
0 0 0
0 0 0
0 0 0
0 0 0
-0.00137402 -0.00247557 0
0.00614587 -0.0148186 0
0.00800846 -0.0173791 0
-0.00199426 0.00781358 0
-0.0118861 0.0238126 0
-0.0117212 -0.00291651 0
-0.00502335 -0.00675346 0
-0.00275756 -0.00645323 0
0 0 0
0 0 0
-0.000260394 0.00552156 0
0.0037422 0.00642199 0
0.00412435 0.00480937 0
0.000763953 0.000165345 0
0.000174009 0.000183775 0
0 0 0
0 0 0
0 0 0
0 0 0
0 0 0
0.000475726 0.00160304 0
0.000177616 0.000663881 0
-0.000550552 8.02055e-06 0
-0.000307365 -0.000173595 0
0 0 0
0 0 0
0 0 0
0 0 0
0 0 0
-0.000784556 -0.0287776 0
-0.00045348 -0.00588339 0
-0.00635541 0.0200948 0
-0.00933073 0.0188211 0
-0.000865127 -0.00795233 0
0.00497466 -0.0105217 0
-0.00152398 -0.0011426 0
-0.00987243 -0.00058217 0
-0.00507368 -0.0025668 0
-0.000664887 0.00415208 0
-0.00295903 0.00668465 0
-0.000390179 0.00272082 0
0.00462492 0.00101092 0
0.00187482 0.00180683 0
0.0015321 -0.00106646 0
0.00471051 -0.000978844 0
0.00378402 0.00161573 0
0.000734822 0.000423164 0
0.00284607 -0.0016141 0
0.00589942 0.00132782 0
0.00266921 0.00309777 0
0.00116696 -0.00121671 0
0.00650764 -0.00266114 0
0.00627506 0.00240828 0
-6.45034e-05 0.0015341 0
0.00321518 -0.00385008 0
0.00914968 1.18729e-05 0
0.00250361 0.00428989 0
-0.0110517 -0.017448 0
-0.00808545 -0.0184908 0
0.0232932 0.0151238 0
0.0503475 0.00332893 0
0.049026 -0.00405868 0
0.0353601 -0.00511956 0
0.0341484 0.00402936 0
0.0386949 -0.000681176 0
0.0338956 -0.00266229 0
0.0316926 0.00124706 0
0.0396231 0.00400769 0
0.0421816 -0.0021469 0
0.0405231 0.000860906 0
0.0438672 0.00147701 0
0.0443813 -0.00114078 0
0.041203 -0.000986667 0
0.04213 0.001641 0
0.0451784 0.000348452 0
0.0430674 -0.00174132 0
0.0409216 0.000355491 0
0.0451534 0.00251037 0
0.047382 -0.00113845 0
0.0418001 -0.0025079 0
0.0417243 0.00254644 0
0.0480631 0.00159408 0
0.0447835 -0.00386966 0
0.0388505 0.00010665 0
0.0454951 0.00433481 0
0.0489336 -0.00207309 0
0.0235964 -0.0152859 0

