# vtk DataFile Version 4.0
SiwiRVisFile
ASCII
DATASET STRUCTURED_POINTS
DIMENSIONS 28 14 1
ORIGIN 0 0 0
SPACING 1 1 1
POINT_DATA 392

SCALARS flags double 1
LOOKUP_TABLE default
1
1
1
1
1
1
1
1
1
1
1
1
1
1
1
1
1
1
1
1
1
1
1
1
1
1
1
1
1
1
1
1
1
1
1
1
1
1
1
1
1
1
1
1
1
1
1
1
1
1
1
1
1
1
1
1
1
1
1
1
1
1
1
1
1
1
1
1
1
1
1
1
1
1
1
1
1
1
1
1
1
1
1
1
1
1
1
1
1
1
1
1
1
1
1
1
1
1
1
1
1
1
1
1
1
1
1
1
1
1
1
1
1
1
1
1
1
1
1
1
1
1
1
1
1
1
1
1
1
1
1
1
1
1
1
1
1
1
1
1
1
1
1
1
1
1
1
1
1
1
1
1
1
1
1
1
1
1
1
1
1
1
1
1
1
1
1
1
1
1
1
1
1
1
1
1
1
1
1
1
1
1
1
1
1
1
1
1
1
1
1
1
1
1
1
1
1
1
1
1
1
1
1
1
1
1
1
1
1
1
1
1
1
1
1
1
1
1
1
1
1
1
1
1
1
1
1
1
1
1
1
1
1
1
1
1
1
1
1
1
1
1
1
1
1
1
1
1
1
1
1
1
1
1
1
1
1
1
1
1
1
1
1
1
1
1
1
1
1
1
1
1
1
1
1
1
1
1
1
1
1
1
1
1
1
1
1
1
1
1
1
1
1
1
1
1
1
1
1
1
1
1
1
1
1
1
1
1
1
1
1
1
1
1
1
1
1
1
1
1
1
1
1
1
1
1
1
1
1
1
1
1
1
1
1
1
1
1
1
1
1
1
1
1
1
1
1
1
1
1
1
1
1
1
1
1
1
1
1
1
1
1
1
1
1
1
1
1
1
1
1
1
1
1
1
1
1
1
1
1
1
1
1
1
1
1
1
1
1
1
1
1

SCALARS density double 1
LOOKUP_TABLE default
0.987837
0.980741
0.979945
0.998752
0.998193
0.998091
0.998056
1.00046
1.00123
1.00056
1.00299
1.00558
1.00504
1.00505
1.00609
1.00603
1.00589
1.00715
1.00827
1.00903
1.0077
1.01236
1.01751
1.01487
1.01086
1.01578
1.01794
1.01194
0.98499
0.978596
0.982713
0.999478
0.995625
0.998557
0.999981
0.999238
1.00016
1.00209
1.00317
1.00414
1.00565
1.00586
1.00549
1.00543
1.00654
1.00761
1.00753
1.0087
1.00858
1.01253
1.01632
1.01494
1.01259
1.01485
1.01637
1.01367
0.976575
0.987046
0
0
0
0
0
0
0
0
0
0
1.00563
1.00562
1.00535
0
0
0
0
0
0
0
1.01031
1.01375
1.01927
1.01328
1.01036
1.01775
0.96728
0.969727
0
0
0
0
0
0
0
0
0
0
0
1.0057
1.00553
0
0
0
0
0
0
0
0
1.01449
1.01467
1.01475
1.01438
1.01424
0.975276
0.961985
0
0
0
1.00497
0.999898
1.00525
1.00813
1.00488
1.00456
1.00778
1.00848
1.00463
1.00506
1.00918
1.00724
1.00435
1.00936
1.01207
1.00757
1.01142
1.01829
1.01538
1.00937
1.01605
1.0194
1.01114
0.967623
0.970605
0
0
0
0.999851
1.00526
1.00733
1.00279
1.00486
1.00955
1.00598
1.00432
1.00793
1.00797
1.0047
1.00623
1.00942
1.00794
1.00743
1.01133
1.01471
1.01259
1.01418
1.01626
1.01386
1.01308
1.01678
0.963582
0.977937
0.972023
0
0
1.00485
1.00867
1.00158
0
0
0
0
0
0
0
1.00505
1.00647
0
0
0
0
0
0
0
1.02041
1.01332
1.00939
1.01781
0.974026
0.964259
0.966783
0.974568
0
0
1.00005
1.00125
0
0
0
0
0
0
1.00653
1.00688
1.00508
0
0
0
0
0
0
1.01408
1.01082
1.01619
1.01872
1.00993
0.973716
0.961013
0.9668
0.978223
0
0
0.996096
1.00292
1.00182
0.990927
0.999168
1.00535
1.00392
1.0035
1.00609
1.00759
1.00597
1.0038
1.00691
1.00977
1.00581
1.01013
1.01637
1.0159
1.00977
1.0149
1.01932
1.01215
0.961589
0.978468
0.972382
0.958973
0
0
0
0.996972
0.998988
0.996392
1.00009
1.00052
1.00418
1.00773
1.00508
1.00388
1.00722
1.00806
1.00414
1.00556
1.0106
1.01352
1.00936
1.0143
1.01943
1.012
1.00765
1.02262
0.967478
0.974914
0.969879
0.963236
0.970717
0
0
0.990961
0.992572
0
0
0
0
0
0
0
1.00481
1.00747
0
0
0
0
0
0
0
1.01482
1.00978
1.01647
0.977689
0.953838
0.965032
0.983718
0.968654
0
0
0.986475
0.982933
0.99325
0.993797
0.986779
0
0
0
0
0
1.00059
1.00534
1.00555
1.00182
0
0
0
0
0
1.02901
1.0045
0.964472
0.966978
0.969562
0.969652
0.969146
0.976515
0.985331
0.989371
0.989071
0.989104
0.987753
0.993754
0.994295
0.99389
0.995289
1.00081
1.00148
1.00028
1.00451
1.00668
1.00177
1.00409
1.01437
1.01002
1.00362
1.0192
1.01199
1.0119
0.958419
0.984727
0.971799
0.957447
0.973089
0.982218
0.980327
0.988058
0.992793
0.987126
0.988006
0.994347
0.992991
0.995489
0.996169
0.997026
1.00262
1.0053
1.00013
1.0016
1.01062
1.0069
1.00093
1.01281
1.01989
1.00768
0.996523
1.03471

VECTORS velocity double
-0.000511115 0.000518763 0
-0.00553077 0.00240558 0
-0.00840336 9.33703e-06 0
-0.0080344 -0.000499439 0
-0.00707896 -8.66305e-05 0
-0.00772672 0.000509016 0
-0.00830001 -8.35174e-05 0
-0.00758534 -0.000369889 0
-0.00733118 0.000199322 0
-0.00799637 0.000265925 0
-0.00802541 -0.000195951 0
-0.0073584 -0.000259258 0
-0.00730414 0.000235271 0
-0.00687878 -0.00049309 0
-0.00610965 3.70732e-06 0
-0.00644356 0.00021601 0
-0.00649974 -0.000144763 0
-0.00616648 -6.10585e-05 0
-0.00634716 0.000193944 0
-0.00659259 -2.29093e-05 0
-0.00625109 -0.000216379 0
-0.00622959 0.000300968 0
-0.00632751 -0.000321776 0
-0.00421853 -0.00108492 0
-0.00227386 -0.000220376 0
-0.00171286 -4.37293e-05 0
-0.00101172 -0.000572755 0
-4.29172e-05 -2.25942e-05 0
-0.00246451 0.00541678 0
-0.00726809 0.00716575 0
-0.00708637 0.000759619 0
-0.00745427 -0.000648297 0
-0.00841068 -7.76366e-05 0
-0.00776229 0.000485376 0
-0.00718949 -0.000101371 0
-0.00790373 -0.000389058 0
-0.00815829 0.000178532 0
-0.00749272 0.000255004 0
-0.00746406 -0.000255966 0
-0.00813067 -0.000370778 0
-0.00735813 -0.000847017 0
-0.00674452 -0.000742823 0
-0.00683274 -0.000454405 0
-0.00628745 0.000211262 0
-0.0062313 -0.000140088 0
-0.0065646 -8.08403e-05 0
-0.00638407 0.000184571 0
-0.00613839 -4.54968e-05 0
-0.00648021 -0.000162906 0
-0.00650148 0.000165709 0
-0.00563616 -0.00195384 0
-0.00501581 -0.00278816 0
-0.00423061 -0.00226633 0
-0.00226915 -0.00118201 0
-0.00146735 -0.00150715 0
-0.000551625 -0.000965381 0
-0.000681082 0.00961704 0
-0.00125396 0.00587864 0
0 0 0
0 0 0
0 0 0
0 0 0
0 0 0
0 0 0
0 0 0
0 0 0
0 0 0
0 0 0
-0.000827272 -0.000955518 0
-0.000796299 -0.00115433 0
5.67587e-05 -0.000625066 0
0 0 0
0 0 0
0 0 0
0 0 0
0 0 0
0 0 0
0 0 0
-0.000767444 -0.00123233 0
-0.0024551 -0.00182162 0
-0.0029754 -0.00392464 0
-0.00166876 -0.00210877 0
-0.00108849 -0.00144954 0
-0.000330361 -0.00219958 0
0.00185003 0.00836402 0
0.00193181 0.00711974 0
0 0 0
0 0 0
0 0 0
0 0 0
0 0 0
0 0 0
0 0 0
0 0 0
0 0 0
0 0 0
0 0 0
-0.00065838 -0.00159919 0
-0.00063974 -0.00117232 0
0 0 0
0 0 0
0 0 0
0 0 0
0 0 0
0 0 0
0 0 0
0 0 0
-0.001664 -0.000308603 0
-0.00391122 -0.00278416 0
-0.00356673 -0.00375178 0
-0.000961066 -0.00391874 0
0.000639734 -0.00195987 0
0.000267147 0.00497472 0
0.000303507 0.0105183 0
0 0 0
0 0 0
0 0 0
-0.000106076 2.57533e-05 0
-0.00181547 0.00114923 0
-0.00207099 -0.000898745 0
-0.00126382 0.000265234 0
-0.00215664 0.000359429 0
-0.00238745 -0.000188919 0
-0.00187873 -0.000106155 0
-0.00203253 0.000133808 0
-0.00242334 -0.000836341 0
-0.00317461 -0.0011668 0
-0.00350903 -0.000376393 0
-0.00330795 5.68835e-06 0
-0.00396984 0.000499076 0
-0.00481843 0.000107988 0
-0.00426254 -0.000532312 0
-0.00331582 -0.000111681 0
-0.00417718 0.000809947 0
-0.00555068 0.000544026 0
-0.00394993 -0.000689311 0
-0.00229662 -0.000886167 0
-0.00261815 -0.00513908 0
-0.00256358 -0.00642197 0
-0.00081756 -0.00198532 0
-0.00243258 0.00816319 0
-0.00246547 0.00732427 0
0 0 0
0 0 0
0 0 0
-0.00100694 0.00187404 0
-0.000536126 0.00077827 0
-0.00100652 0.000248341 0
-0.00285803 0.000306186 0
-0.00196202 0.000439171 0
-0.00173413 -0.000215164 0
-0.00224029 -0.000113192 0
-0.00208864 0.000162328 0
-0.00210698 -0.000209115 0
-0.00291071 -0.000193207 0
-0.00353924 -0.000193716 0
-0.00439103 0.000823246 0
-0.0043424 0.000586969 0
-0.00349434 0.00012422 0
-0.00405018 -0.000549925 0
-0.00499677 -8.91664e-05 0
-0.00413574 0.000667056 0
-0.00276179 0.000298296 0
-0.00374096 -0.00102548 0
-0.0025204 -0.00462824 0
0.0010346 -0.00527966 0
-0.000925272 -0.00372725 0
-0.00154773 -0.00562072 0
0.000574175 0.011097 0
0.000405737 0.00426593 0
-0.000153529 0.000124596 0
0 0 0
0 0 0
0.00111569 0.00172721 0
0.000550733 0.000450015 0
-0.000449198 0.00194431 0
0 0 0
0 0 0
0 0 0
0 0 0
0 0 0
0 0 0
0 0 0
-0.000928372 0.00113808 0
-0.000897595 0.000301668 0
0 0 0
0 0 0
0 0 0
0 0 0
0 0 0
0 0 0
0 0 0
-0.00166335 -0.00668307 0
-0.00298917 -0.00501414 0
2.74052e-05 -0.0038018 0
0.00159778 -0.00555584 0
0.00282892 0.00609332 0
0.00357229 0.00918439 0
0.000518335 0.000854645 0
-0.000593458 -0.000634764 0
0 0 0
0 0 0
0.000911989 0.00236345 0
0.00113316 0.0017561 0
0 0 0
0 0 0
0 0 0
0 0 0
0 0 0
0 0 0
-0.000881998 0.00104708 0
-0.000537445 0.000690264 0
0.000385205 -0.000309476 0
0 0 0
0 0 0
0 0 0
0 0 0
0 0 0
0 0 0
-0.00140126 0.00137681 0
-0.00376413 -0.00247205 0
-0.00823047 -0.00361251 0
-0.0059254 -0.0135849 0
0.000366279 -0.00273774 0
-0.00150282 0.00379481 0
0.00104938 0.00912079 0
0.0050563 0.00141603 0
0.00208186 0.00114651 0
0 0 0
0 0 0
0.000883774 0.00131833 0
0.0010983 0.00164298 0
-0.00424896 0.00380021 0
-0.00760543 -0.000197849 0
-0.00564396 -0.00103427 0
-0.0056275 0.00094155 0
-0.00768797 0.000429597 0
-0.00672723 -0.000879297 0
-0.00462068 0.00128744 0
-0.00619816 0.000762752 0
-0.00673591 -0.00078285 0
-0.00534473 0.000106375 0
-0.00712558 0.00114664 0
-0.00812119 -0.00054412 0
-0.00571502 -0.0010817 0
-0.00573754 0.00121899 0
-0.00891532 0.00123858 0
-0.0064274 -0.000339355 0
-0.0039982 0.00201564 0
-0.00966209 -0.000114075 0
-0.0127446 -0.0167315 0
-0.00522451 -0.00969679 0
-0.00126045 0.0080729 0
-0.000255348 0.000392533 0
0.00116711 0.00166719 0
-9.77304e-05 0.00537177 0
0 0 0
0 0 0
0 0 0
-0.00236973 0.00639934 0
-0.00502928 0.00849755 0
-0.00536324 0.000202528 0
-0.00732848 -0.000916602 0
-0.00734173 0.000919667 0
-0.00528439 0.000385707 0
-0.00624219 -0.000970821 0
-0.00746981 0.000168142 0
-0.00513399 0.00103825 0
-0.00539716 0.000256055 0
-0.00803049 0.000356244 0
-0.00649699 0.00123873 0
-0.00550036 -0.000528486 0
-0.00790691 -0.00105699 0
-0.00788466 0.00109165 0
-0.00470625 0.00109196 0
-0.00579384 -0.00199133 0
-0.0070308 0.00170891 0
-0.00161213 -0.00189762 0
-0.00324509 -0.00800787 0
-0.00382945 -0.0234687 0
0.00173614 0.00756097 0
-0.00629468 0.00628633 0
-0.0141977 0.00177939 0
-0.00788464 0.0014868 0
-0.00104198 -0.00165112 0
0 0 0
0 0 0
0.00173179 0.00838286 0
0.00180934 0.00870601 0
0 0 0
0 0 0
0 0 0
0 0 0
0 0 0
0 0 0
0 0 0
0.000492292 0.00118865 0
0.000458404 0.000894802 0
0 0 0
0 0 0
0 0 0
0 0 0
0 0 0
0 0 0
0 0 0
-0.00137414 -0.00247577 0
0.00614576 -0.0148188 0
0.00800879 -0.0173794 0
-0.00199325 0.00781577 0
-0.0118864 0.0238149 0
-0.0117206 -0.00291292 0
-0.00502352 -0.00675038 0
-0.00275687 -0.00645072 0
0 0 0
0 0 0
-0.000259552 0.00552305 0
0.00374186 0.00642347 0
0.0041249 0.00481099 0
0.000763327 0.000166847 0
0.000174955 0.00018501 0
0 0 0
0 0 0
0 0 0
0 0 0
0 0 0
0.000475967 0.00160385 0
0.000177688 0.000664941 0
-0.000550678 9.10326e-06 0
-0.000307021 -0.000172825 0
0 0 0
0 0 0
0 0 0
0 0 0
0 0 0
-0.000784367 -0.0287772 0
-0.000453511 -0.00588305 0
-0.00635189 0.020092 0
-0.00933146 0.018817 0
-0.000864914 -0.00795618 0
0.00497511 -0.0105243 0
-0.00152451 -0.00114442 0
-0.00987229 -0.000583781 0
-0.00507424 -0.00256983 0
-0.000664313 0.00414993 0
-0.00295939 0.00668247 0
-0.00038969 0.00271883 0
0.00462472 0.00100906 0
0.00187491 0.0018055 0
0.00153198 -0.00106782 0
0.00471044 -0.000980333 0
0.00378415 0.00161433 0
0.000734641 0.000421572 0
0.00284609 -0.0016159 0
0.00589946 0.00132651 0
0.00266938 0.00309648 0
0.0011669 -0.00121794 0
0.00650764 -0.00266196 0
0.00627512 0.00240777 0
-6.47055e-05 0.00153327 0
0.00321521 -0.00385113 0
0.00914984 1.12915e-05 0
0.00250348 0.00428912 0
-0.0110517 -0.0174485 0
-0.00808534 -0.0184911 0
0.023294 0.0151296 0
0.0503483 0.00333374 0
0.0490258 -0.0040557 0
0.0353596 -0.00511753 0
0.0341487 0.00403202 0
0.0386947 -0.000679277 0
0.0338956 -0.00265994 0
0.0316924 0.00124943 0
0.0396234 0.00401042 0
0.0421814 -0.00214492 0
0.0405232 0.000863145 0
0.0438671 0.00147873 0
0.0443812 -0.00113942 0
0.041203 -0.000985171 0
0.0421301 0.00164265 0
0.0451784 0.000350016 0
0.0430674 -0.00173994 0
0.0409215 0.000356901 0
0.0451536 0.00251189 0
0.0473819 -0.00113728 0
0.0418 -0.00250709 0
0.0417243 0.00254724 0
0.0480632 0.00159499 0
0.0447834 -0.00386896 0
0.0388505 0.000107294 0
0.0454953 0.0043357 0
0.0489335 -0.00207267 0
0.023596 -0.0152856 0

