# vtk DataFile Version 4.0
SiwiRVisFile
ASCII
DATASET STRUCTURED_POINTS
DIMENSIONS 28 14 1
ORIGIN 0 0 0
SPACING 1 1 1
POINT_DATA 392

SCALARS flags double 1
LOOKUP_TABLE default
1
1
1
1
1
1
1
1
1
1
1
1
1
1
1
1
1
1
1
1
1
1
1
1
1
1
1
1
1
1
1
1
1
1
1
1
1
1
1
1
1
1
1
1
1
1
1
1
1
1
1
1
1
1
1
1
1
1
1
1
1
1
1
1
1
1
1
1
1
1
1
1
1
1
1
1
1
1
1
1
1
1
1
1
1
1
1
1
1
1
1
1
1
1
1
1
1
1
1
1
1
1
1
1
1
1
1
1
1
1
1
1
1
1
1
1
1
1
1
1
1
1
1
1
1
1
1
1
1
1
1
1
1
1
1
1
1
1
1
1
1
1
1
1
1
1
1
1
1
1
1
1
1
1
1
1
1
1
1
1
1
1
1
1
1
1
1
1
1
1
1
1
1
1
1
1
1
1
1
1
1
1
1
1
1
1
1
1
1
1
1
1
1
1
1
1
1
1
1
1
1
1
1
1
1
1
1
1
1
1
1
1
1
1
1
1
1
1
1
1
1
1
1
1
1
1
1
1
1
1
1
1
1
1
1
1
1
1
1
1
1
1
1
1
1
1
1
1
1
1
1
1
1
1
1
1
1
1
1
1
1
1
1
1
1
1
1
1
1
1
1
1
1
1
1
1
1
1
1
1
1
1
1
1
1
1
1
1
1
1
1
1
1
1
1
1
1
1
1
1
1
1
1
1
1
1
1
1
1
1
1
1
1
1
1
1
1
1
1
1
1
1
1
1
1
1
1
1
1
1
1
1
1
1
1
1
1
1
1
1
1
1
1
1
1
1
1
1
1
1
1
1
1
1
1
1
1
1
1
1
1
1
1
1
1
1
1
1
1
1
1
1
1
1
1
1
1
1
1
1
1
1
1
1
1
1
1
1
1
1
1
1

SCALARS density double 1
LOOKUP_TABLE default
0.987837
0.980741
0.979945
0.998752
0.998193
0.998091
0.998056
1.00046
1.00123
1.00056
1.00299
1.00558
1.00504
1.00505
1.00609
1.00603
1.00589
1.00715
1.00827
1.00903
1.0077
1.01236
1.01751
1.01487
1.01086
1.01578
1.01794
1.01194
0.98499
0.978596
0.982713
0.999478
0.995625
0.998557
0.999981
0.999238
1.00016
1.00209
1.00317
1.00414
1.00565
1.00586
1.00549
1.00543
1.00654
1.00761
1.00753
1.0087
1.00858
1.01253
1.01632
1.01494
1.01259
1.01485
1.01637
1.01367
0.976575
0.987046
0
0
0
0
0
0
0
0
0
0
1.00563
1.00562
1.00535
0
0
0
0
0
0
0
1.01031
1.01375
1.01927
1.01328
1.01036
1.01775
0.96728
0.969727
0
0
0
0
0
0
0
0
0
0
0
1.0057
1.00553
0
0
0
0
0
0
0
0
1.01449
1.01467
1.01475
1.01438
1.01424
0.975276
0.961985
0
0
0
1.00497
0.999898
1.00525
1.00813
1.00488
1.00456
1.00778
1.00848
1.00463
1.00506
1.00918
1.00724
1.00435
1.00936
1.01207
1.00757
1.01142
1.01829
1.01538
1.00937
1.01605
1.0194
1.01114
0.967623
0.970605
0
0
0
0.999851
1.00526
1.00733
1.00279
1.00486
1.00955
1.00598
1.00432
1.00793
1.00797
1.0047
1.00623
1.00942
1.00794
1.00743
1.01133
1.01471
1.01259
1.01418
1.01626
1.01386
1.01308
1.01678
0.963582
0.977937
0.972023
0
0
1.00485
1.00867
1.00158
0
0
0
0
0
0
0
1.00505
1.00647
0
0
0
0
0
0
0
1.02041
1.01332
1.00939
1.01781
0.974026
0.964259
0.966783
0.974568
0
0
1.00005
1.00125
0
0
0
0
0
0
1.00653
1.00688
1.00508
0
0
0
0
0
0
1.01408
1.01082
1.01619
1.01872
1.00993
0.973716
0.961014
0.9668
0.978223
0
0
0.996096
1.00292
1.00182
0.990927
0.999168
1.00535
1.00392
1.0035
1.00609
1.00759
1.00597
1.0038
1.00691
1.00977
1.00581
1.01013
1.01637
1.0159
1.00977
1.0149
1.01932
1.01215
0.961589
0.978468
0.972382
0.958973
0
0
0
0.996972
0.998988
0.996392
1.00009
1.00052
1.00418
1.00773
1.00508
1.00388
1.00722
1.00806
1.00414
1.00556
1.0106
1.01352
1.00936
1.0143
1.01943
1.012
1.00765
1.02262
0.967478
0.974914
0.969879
0.963236
0.970717
0
0
0.990961
0.992572
0
0
0
0
0
0
0
1.00481
1.00747
0
0
0
0
0
0
0
1.01482
1.00978
1.01647
0.977689
0.953838
0.965032
0.983718
0.968654
0
0
0.986475
0.982933
0.99325
0.993797
0.986779
0
0
0
0
0
1.00059
1.00534
1.00555
1.00182
0
0
0
0
0
1.02901
1.0045
0.964472
0.966978
0.969562
0.969652
0.969146
0.976515
0.985331
0.989371
0.989071
0.989104
0.987753
0.993754
0.994295
0.99389
0.995289
1.00081
1.00148
1.00028
1.00451
1.00668
1.00177
1.00409
1.01437
1.01002
1.00362
1.0192
1.01199
1.0119
0.958419
0.984727
0.971799
0.957447
0.973089
0.982218
0.980327
0.988058
0.992793
0.987127
0.988006
0.994347
0.992991
0.995489
0.996169
0.997026
1.00262
1.0053
1.00013
1.0016
1.01062
1.0069
1.00093
1.01281
1.01989
1.00768
0.996524
1.03471

VECTORS velocity double
-0.000511464 0.000519727 0
-0.00553053 0.00240631 0
-0.00840344 1.01412e-05 0
-0.0080343 -0.000498686 0
-0.00707904 -8.6395e-05 0
-0.00772667 0.000508763 0
-0.00830004 -8.42492e-05 0
-0.00758534 -0.000371075 0
-0.00733117 0.000197785 0
-0.00799638 0.000264052 0
-0.00802543 -0.000198149 0
-0.0073584 -0.000261744 0
-0.00730413 0.000232648 0
-0.00687879 -0.000496006 0
-0.00610959 3.9645e-07 0
-0.00644362 0.000212065 0
-0.00649976 -0.000149429 0
-0.00616648 -6.58042e-05 0
-0.00634712 0.00018938 0
-0.00659268 -2.73878e-05 0
-0.00625103 -0.000220611 0
-0.00622961 0.000297134 0
-0.00632755 -0.000325431 0
-0.00421861 -0.00108861 0
-0.00227372 -0.000223611 0
-0.00171293 -4.67775e-05 0
-0.00101169 -0.000575801 0
-4.29188e-05 -2.55214e-05 0
-0.00246467 0.00541579 0
-0.00726794 0.00716479 0
-0.00708654 0.0007588 0
-0.00745411 -0.000648987 0
-0.00841076 -7.78624e-05 0
-0.00776226 0.000485637 0
-0.00718951 -0.000100645 0
-0.00790371 -0.000387912 0
-0.00815832 0.000180091 0
-0.00749272 0.000256925 0
-0.00746403 -0.000253807 0
-0.00813073 -0.000368348 0
-0.00735806 -0.000844445 0
-0.00674456 -0.000740056 0
-0.00683274 -0.000451268 0
-0.00628743 0.000215219 0
-0.00623135 -0.000135513 0
-0.00656462 -7.61308e-05 0
-0.00638405 0.000189217 0
-0.00613841 -4.10269e-05 0
-0.00648016 -0.000158757 0
-0.00650153 0.000169572 0
-0.00563608 -0.00195039 0
-0.00501587 -0.00278491 0
-0.00423053 -0.0022633 0
-0.0022692 -0.00117915 0
-0.00146732 -0.00150438 0
-0.000551644 -0.000962603 0
-0.000681682 0.00961823 0
-0.0012535 0.00587989 0
0 0 0
0 0 0
0 0 0
0 0 0
0 0 0
0 0 0
0 0 0
0 0 0
0 0 0
0 0 0
-0.000827233 -0.00095792 0
-0.000796415 -0.00115683 0
5.68922e-05 -0.000627842 0
0 0 0
0 0 0
0 0 0
0 0 0
0 0 0
0 0 0
0 0 0
-0.000767454 -0.00123555 0
-0.00245514 -0.00182442 0
-0.00297537 -0.00392725 0
-0.00166881 -0.00211124 0
-0.00108842 -0.00145194 0
-0.000330405 -0.00220196 0
0.00185036 0.00836258 0
0.00193148 0.00711837 0
0 0 0
0 0 0
0 0 0
0 0 0
0 0 0
0 0 0
0 0 0
0 0 0
0 0 0
0 0 0
0 0 0
-0.000658431 -0.00159702 0
-0.000639699 -0.00117003 0
0 0 0
0 0 0
0 0 0
0 0 0
0 0 0
0 0 0
0 0 0
0 0 0
-0.00166396 -0.000306131 0
-0.00391119 -0.00278208 0
-0.00356678 -0.00374983 0
-0.000961044 -0.0039168 0
0.000639757 -0.00195801 0
0.000266495 0.00497623 0
0.000304271 0.0105198 0
0 0 0
0 0 0
0 0 0
-0.000106077 2.63423e-05 0
-0.00181547 0.00114974 0
-0.00207097 -0.000898313 0
-0.00126381 0.000265451 0
-0.00215669 0.000359299 0
-0.00238735 -0.000189345 0
-0.0018789 -0.000107119 0
-0.00203237 0.000132343 0
-0.00242353 -0.000838301 0
-0.0031744 -0.00116872 0
-0.00350922 -0.000378128 0
-0.00330772 3.99543e-06 0
-0.00397005 0.000496909 0
-0.00481828 0.000105288 0
-0.00426275 -0.000535324 0
-0.00331559 -0.000114517 0
-0.00417736 0.000807285 0
-0.00555061 0.000541489 0
-0.00395001 -0.000691475 0
-0.00229661 -0.000887879 0
-0.00261815 -0.00514047 0
-0.00256353 -0.00642329 0
-0.000817679 -0.00198666 0
-0.00243212 0.00816171 0
-0.00246585 0.00732261 0
0 0 0
0 0 0
0 0 0
-0.0010069 0.00187343 0
-0.000536135 0.000777728 0
-0.00100652 0.0002479 0
-0.00285801 0.000305971 0
-0.00196207 0.000439305 0
-0.00173403 -0.000214745 0
-0.00224043 -0.000112251 0
-0.00208848 0.000163761 0
-0.00210717 -0.00020724 0
-0.00291047 -0.00019145 0
-0.00353945 -0.000192173 0
-0.00439085 0.000824854 0
-0.00434258 0.000589203 0
-0.0034942 0.000126929 0
-0.00405032 -0.000547071 0
-0.00499664 -8.63609e-05 0
-0.00413594 0.000669911 0
-0.00276158 0.000300878 0
-0.00374105 -0.00102363 0
-0.00252029 -0.00462695 0
0.00103456 -0.00527876 0
-0.000925292 -0.00372647 0
-0.0015477 -0.00561993 0
0.000573479 0.0110988 0
0.000406102 0.00426766 0
-0.000153328 0.00012726 0
0 0 0
0 0 0
0.00111571 0.00172787 0
0.000550715 0.000450565 0
-0.000449187 0.00194481 0
0 0 0
0 0 0
0 0 0
0 0 0
0 0 0
0 0 0
0 0 0
-0.000928784 0.00113673 0
-0.000897245 0.000300252 0
0 0 0
0 0 0
0 0 0
0 0 0
0 0 0
0 0 0
0 0 0
-0.00166346 -0.00668387 0
-0.00298918 -0.00501463 0
2.74948e-05 -0.00380214 0
0.00159765 -0.00555614 0
0.00282883 0.00609112 0
0.00357249 0.00918247 0
0.000517892 0.000851916 0
-0.000592963 -0.000638365 0
0 0 0
0 0 0
0.000912031 0.00236286 0
0.00113309 0.00175559 0
0 0 0
0 0 0
0 0 0
0 0 0
0 0 0
0 0 0
-0.000881646 0.00104827 0
-0.000537759 0.000691457 0
0.000385538 -0.000308426 0
0 0 0
0 0 0
0 0 0
0 0 0
0 0 0
0 0 0
-0.00140133 0.00137737 0
-0.00376402 -0.00247158 0
-0.00823052 -0.00361234 0
-0.00592542 -0.013585 0
0.000366337 -0.00273782 0
-0.00150368 0.00379701 0
0.00105002 0.00912347 0
0.00505576 0.0014191 0
0.00208228 0.00115015 0
0 0 0
0 0 0
0.000883967 0.001319 0
0.00109807 0.00164347 0
-0.00424866 0.00380034 0
-0.00760575 -0.000198226 0
-0.00564368 -0.00103505 0
-0.00562779 0.0009405 0
-0.00768765 0.000428699 0
-0.00672759 -0.000880506 0
-0.00462035 0.00128631 0
-0.00619849 0.000761684 0
-0.0067356 -0.000783532 0
-0.00534502 0.000105769 0
-0.00712527 0.0011462 0
-0.00812151 -0.000545261 0
-0.00571476 -0.00108268 0
-0.00573773 0.00121814 0
-0.00891517 0.00123798 0
-0.00642755 -0.0003399 0
-0.00399812 0.00201539 0
-0.00966213 -0.000114013 0
-0.0127445 -0.0167313 0
-0.00522467 -0.00969639 0
-0.00126044 0.00807068 0
-0.000254784 0.000389435 0
0.00116603 0.00166364 0
-9.69832e-05 0.0053674 0
0 0 0
0 0 0
0 0 0
-0.00237039 0.0063988 0
-0.00502884 0.0084973 0
-0.00536351 0.000202818 0
-0.00732826 -0.000915924 0
-0.00734205 0.000920807 0
-0.00528404 0.000386666 0
-0.00624251 -0.000969688 0
-0.00746955 0.000169217 0
-0.00513424 0.0010393 0
-0.00539686 0.000256529 0
-0.00803077 0.000356576 0
-0.0064967 0.00123918 0
-0.00550068 -0.000527439 0
-0.00790666 -0.00105612 0
-0.0078849 0.0010926 0
-0.00470605 0.00109264 0
-0.00579399 -0.00199087 0
-0.00703066 0.00170906 0
-0.00161224 -0.00189787 0
-0.00324509 -0.00800812 0
-0.00382932 -0.0234692 0
0.00173314 0.00756368 0
-0.00629267 0.00628912 0
-0.0141983 0.00178337 0
-0.00788433 0.00149174 0
-0.00104275 -0.00164564 0
0 0 0
0 0 0
0.001731 0.00838391 0
0.00180971 0.00870697 0
0 0 0
0 0 0
0 0 0
0 0 0
0 0 0
0 0 0
0 0 0
0.000492453 0.0011882 0
0.000458109 0.000895116 0
0 0 0
0 0 0
0 0 0
0 0 0
0 0 0
0 0 0
0 0 0
-0.0013739 -0.00247536 0
0.00614592 -0.0148184 0
0.00800829 -0.0173789 0
-0.00199476 0.00781264 0
-0.0118859 0.0238117 0
-0.0117215 -0.0029181 0
-0.00502328 -0.00675485 0
-0.00275786 -0.00645437 0
0 0 0
0 0 0
-0.000260805 0.00552088 0
0.00374238 0.00642132 0
0.00412408 0.00480861 0
0.000764267 0.000164628 0
0.000173543 0.000183179 0
0 0 0
0 0 0
0 0 0
0 0 0
0 0 0
0.000475576 0.00160258 0
0.000177586 0.00066327 0
-0.000550481 7.39493e-06 0
-0.000307557 -0.000174054 0
0 0 0
0 0 0
0 0 0
0 0 0
0 0 0
-0.000784719 -0.0287778 0
-0.000453412 -0.00588362 0
-0.00635698 0.020096 0
-0.00933039 0.0188229 0
-0.000865224 -0.00795062 0
0.00497446 -0.0105206 0
-0.00152374 -0.00114176 0
-0.0098725 -0.000581445 0
-0.00507341 -0.00256538 0
-0.000665168 0.00415306 0
-0.00295884 0.00668566 0
-0.000390421 0.00272173 0
0.00462502 0.00101181 0
0.00187477 0.00180747 0
0.00153217 -0.00106581 0
0.00471054 -0.000978132 0
0.00378396 0.00161642 0
0.000734908 0.00042394 0
0.00284607 -0.0016132 0
0.00589939 0.0013285 0
0.00266913 0.00309849 0
0.00116698 -0.00121602 0
0.00650763 -0.00266067 0
0.00627502 0.00240856 0
-6.43816e-05 0.00153459 0
0.00321517 -0.00384945 0
0.00914958 1.2232e-05 0
0.00250372 0.00429037 0
-0.0110518 -0.0174478 0
-0.00808552 -0.0184906 0
0.0232929 0.0151213 0
0.0503471 0.00332682 0
0.0490261 -0.00406001 0
0.0353603 -0.00512046 0
0.0341482 0.00402814 0
0.038695 -0.000682041 0
0.0338956 -0.00266339 0
0.0316927 0.00124598 0
0.039623 0.00400641 0
0.0421816 -0.00214782 0
0.040523 0.000859843 0
0.0438672 0.00147619 0
0.0443813 -0.00114144 0
0.041203 -0.000987389 0
0.04213 0.00164018 0
0.0451784 0.000347688 0
0.0430674 -0.00174201 0
0.0409216 0.000354758 0
0.0451534 0.00250953 0
0.047382 -0.00113909 0
0.0418001 -0.00250836 0
0.0417243 0.00254598 0
0.048063 0.00159353 0
0.0447835 -0.00387007 0
0.0388505 0.000106253 0
0.045495 0.00433427 0
0.0489336 -0.00207336 0
0.0235968 -0.0152861 0

