# vtk DataFile Version 4.0
SiwiRVisFile
ASCII
DATASET STRUCTURED_POINTS
DIMENSIONS 28 14 1
ORIGIN 0 0 0
SPACING 1 1 1
POINT_DATA 392

SCALARS flags double 1
LOOKUP_TABLE default
1
1
1
1
1
1
1
1
1
1
1
1
1
1
1
1
1
1
1
1
1
1
1
1
1
1
1
1
1
1
1
1
1
1
1
1
1
1
1
1
1
1
1
1
1
1
1
1
1
1
1
1
1
1
1
1
1
1
1
1
1
1
1
1
1
1
1
1
1
1
1
1
1
1
1
1
1
1
1
1
1
1
1
1
1
1
1
1
1
1
1
1
1
1
1
1
1
1
1
1
1
1
1
1
1
1
1
1
1
1
1
1
1
1
1
1
1
1
1
1
1
1
1
1
1
1
1
1
1
1
1
1
1
1
1
1
1
1
1
1
1
1
1
1
1
1
1
1
1
1
1
1
1
1
1
1
1
1
1
1
1
1
1
1
1
1
1
1
1
1
1
1
1
1
1
1
1
1
1
1
1
1
1
1
1
1
1
1
1
1
1
1
1
1
1
1
1
1
1
1
1
1
1
1
1
1
1
1
1
1
1
1
1
1
1
1
1
1
1
1
1
1
1
1
1
1
1
1
1
1
1
1
1
1
1
1
1
1
1
1
1
1
1
1
1
1
1
1
1
1
1
1
1
1
1
1
1
1
1
1
1
1
1
1
1
1
1
1
1
1
1
1
1
1
1
1
1
1
1
1
1
1
1
1
1
1
1
1
1
1
1
1
1
1
1
1
1
1
1
1
1
1
1
1
1
1
1
1
1
1
1
1
1
1
1
1
1
1
1
1
1
1
1
1
1
1
1
1
1
1
1
1
1
1
1
1
1
1
1
1
1
1
1
1
1
1
1
1
1
1
1
1
1
1
1
1
1
1
1
1
1
1
1
1
1
1
1
1
1
1
1
1
1
1
1
1
1
1
1
1
1
1
1
1
1
1
1
1
1
1
1
1

SCALARS density double 1
LOOKUP_TABLE default
0.987837
0.980741
0.979945
0.998752
0.998193
0.998091
0.998056
1.00046
1.00123
1.00056
1.00299
1.00558
1.00504
1.00505
1.00609
1.00603
1.00589
1.00715
1.00827
1.00903
1.0077
1.01236
1.01751
1.01487
1.01086
1.01578
1.01794
1.01194
0.98499
0.978596
0.982713
0.999478
0.995625
0.998557
0.999981
0.999238
1.00016
1.00209
1.00317
1.00414
1.00565
1.00586
1.00549
1.00543
1.00654
1.00761
1.00753
1.0087
1.00858
1.01253
1.01632
1.01494
1.01259
1.01485
1.01637
1.01367
0.976575
0.987046
0
0
0
0
0
0
0
0
0
0
1.00563
1.00562
1.00535
0
0
0
0
0
0
0
1.01031
1.01375
1.01927
1.01328
1.01036
1.01775
0.96728
0.969727
0
0
0
0
0
0
0
0
0
0
0
1.0057
1.00553
0
0
0
0
0
0
0
0
1.01449
1.01467
1.01475
1.01438
1.01424
0.975276
0.961985
0
0
0
1.00497
0.999898
1.00525
1.00813
1.00488
1.00456
1.00778
1.00848
1.00463
1.00506
1.00918
1.00724
1.00435
1.00936
1.01207
1.00757
1.01142
1.01829
1.01538
1.00937
1.01605
1.0194
1.01114
0.967623
0.970605
0
0
0
0.999851
1.00526
1.00733
1.00279
1.00486
1.00955
1.00598
1.00432
1.00793
1.00797
1.0047
1.00623
1.00942
1.00794
1.00743
1.01133
1.01471
1.01259
1.01418
1.01626
1.01386
1.01308
1.01678
0.963582
0.977937
0.972023
0
0
1.00485
1.00867
1.00158
0
0
0
0
0
0
0
1.00505
1.00647
0
0
0
0
0
0
0
1.02041
1.01332
1.00939
1.01781
0.974026
0.964259
0.966783
0.974568
0
0
1.00005
1.00125
0
0
0
0
0
0
1.00653
1.00688
1.00508
0
0
0
0
0
0
1.01408
1.01082
1.01619
1.01872
1.00993
0.973716
0.961014
0.9668
0.978223
0
0
0.996096
1.00292
1.00182
0.990927
0.999168
1.00535
1.00392
1.0035
1.00609
1.00759
1.00597
1.0038
1.00691
1.00977
1.00581
1.01013
1.01637
1.0159
1.00977
1.0149
1.01932
1.01215
0.961589
0.978468
0.972382
0.958973
0
0
0
0.996972
0.998988
0.996392
1.00009
1.00052
1.00418
1.00773
1.00508
1.00388
1.00722
1.00806
1.00414
1.00556
1.0106
1.01352
1.00936
1.0143
1.01943
1.012
1.00765
1.02262
0.967478
0.974914
0.969879
0.963236
0.970717
0
0
0.990961
0.992572
0
0
0
0
0
0
0
1.00481
1.00747
0
0
0
0
0
0
0
1.01482
1.00978
1.01647
0.977689
0.953838
0.965032
0.983718
0.968654
0
0
0.986475
0.982933
0.99325
0.993797
0.986779
0
0
0
0
0
1.00059
1.00534
1.00555
1.00182
0
0
0
0
0
1.02901
1.0045
0.964472
0.966978
0.969562
0.969652
0.969146
0.976515
0.985331
0.989371
0.989071
0.989104
0.987753
0.993754
0.994295
0.99389
0.995289
1.00081
1.00148
1.00028
1.00451
1.00668
1.00177
1.00409
1.01437
1.01002
1.00362
1.0192
1.01199
1.0119
0.958419
0.984727
0.971799
0.957447
0.973089
0.982218
0.980327
0.988058
0.992793
0.987126
0.988006
0.994347
0.992991
0.995489
0.996169
0.997026
1.00262
1.0053
1.00013
1.0016
1.01062
1.0069
1.00093
1.01281
1.01989
1.00768
0.996524
1.03471

VECTORS velocity double
-0.000511342 0.000519401 0
-0.00553062 0.0024061 0
-0.0084034 9.98138e-06 0
-0.00803434 -0.000498746 0
-0.00707902 -8.62222e-05 0
-0.00772669 0.000509148 0
-0.00830003 -8.36473e-05 0
-0.00758534 -0.00037027 0
-0.00733118 0.000198731 0
-0.00799637 0.000265138 0
-0.00802542 -0.000196925 0
-0.0073584 -0.000260401 0
-0.00730414 0.000234032 0
-0.00687878 -0.000494499 0
-0.00610962 2.06864e-06 0
-0.00644359 0.000214012 0
-0.00649975 -0.000147165 0
-0.00616648 -6.35297e-05 0
-0.00634714 0.00019154 0
-0.00659264 -2.52955e-05 0
-0.00625106 -0.000218663 0
-0.0062296 0.00029887 0
-0.00632753 -0.000323805 0
-0.00421858 -0.001087 0
-0.00227378 -0.000222225 0
-0.0017129 -4.54957e-05 0
-0.00101171 -0.000574529 0
-4.29148e-05 -2.42969e-05 0
-0.00246461 0.00541613 0
-0.007268 0.00716509 0
-0.00708648 0.000758961 0
-0.00745417 -0.000648937 0
-0.00841073 -7.80355e-05 0
-0.00776226 0.000485235 0
-0.00718951 -0.000101243 0
-0.00790372 -0.000388689 0
-0.0081583 0.000179132 0
-0.00749272 0.00025581 0
-0.00746405 -0.000255008 0
-0.0081307 -0.000369658 0
-0.0073581 -0.000845804 0
-0.00674454 -0.000741488 0
-0.00683274 -0.000452858 0
-0.00628744 0.000213265 0
-0.00623133 -0.000137733 0
-0.00656461 -7.83879e-05 0
-0.00638406 0.000187019 0
-0.0061384 -4.31153e-05 0
-0.00648018 -0.000160666 0
-0.0065015 0.000167824 0
-0.00563612 -0.00195192 0
-0.00501585 -0.00278633 0
-0.00423056 -0.00226459 0
-0.00226918 -0.00118035 0
-0.00146733 -0.00150553 0
-0.000551639 -0.000963757 0
-0.000681452 0.00961781 0
-0.00125368 0.00587948 0
0 0 0
0 0 0
0 0 0
0 0 0
0 0 0
0 0 0
0 0 0
0 0 0
0 0 0
0 0 0
-0.00082725 -0.000956645 0
-0.000796361 -0.00115553 0
5.68289e-05 -0.000626427 0
0 0 0
0 0 0
0 0 0
0 0 0
0 0 0
0 0 0
0 0 0
-0.000767448 -0.00123412 0
-0.00245512 -0.00182321 0
-0.00297538 -0.00392615 0
-0.00166879 -0.00211022 0
-0.00108845 -0.00145096 0
-0.000330381 -0.00220099 0
0.00185027 0.00836311 0
0.00193156 0.00711886 0
0 0 0
0 0 0
0 0 0
0 0 0
0 0 0
0 0 0
0 0 0
0 0 0
0 0 0
0 0 0
0 0 0
-0.000658409 -0.00159816 0
-0.000639713 -0.00117121 0
0 0 0
0 0 0
0 0 0
0 0 0
0 0 0
0 0 0
0 0 0
0 0 0
-0.00166398 -0.000307198 0
-0.0039112 -0.00278295 0
-0.00356676 -0.00375061 0
-0.000961049 -0.00391757 0
0.000639738 -0.00195875 0
0.000266748 0.00497566 0
0.000303976 0.0105193 0
0 0 0
0 0 0
0 0 0
-0.000106051 2.61019e-05 0
-0.00181549 0.00114954 0
-0.00207096 -0.000898462 0
-0.00126384 0.00026542 0
-0.00215664 0.000359461 0
-0.00238742 -0.000189025 0
-0.00187881 -0.000106544 0
-0.00203245 0.000133149 0
-0.00242344 -0.00083727 0
-0.00317451 -0.00116774 0
-0.00350912 -0.000377261 0
-0.00330783 4.82076e-06 0
-0.00396995 0.000497951 0
-0.00481835 0.000106579 0
-0.00426266 -0.000533907 0
-0.00331569 -0.000113199 0
-0.00417728 0.000808495 0
-0.00555063 0.000542614 0
-0.00394998 -0.000690548 0
-0.00229661 -0.000887181 0
-0.00261815 -0.00513994 0
-0.00256356 -0.0064228 0
-0.000817622 -0.00198617 0
-0.0024323 0.0081623 0
-0.0024657 0.0073233 0
0 0 0
0 0 0
0 0 0
-0.00100689 0.00187368 0
-0.000536157 0.000777945 0
-0.00100649 0.000248059 0
-0.00285804 0.000306001 0
-0.00196202 0.000439139 0
-0.0017341 -0.000215059 0
-0.00224035 -0.000112814 0
-0.00208857 0.000162968 0
-0.00210708 -0.000208228 0
-0.00291059 -0.000192351 0
-0.00353935 -0.000192941 0
-0.00439094 0.000824072 0
-0.00434249 0.000588129 0
-0.00349426 0.000125634 0
-0.00405026 -0.000548413 0
-0.0049967 -8.76649e-05 0
-0.00413585 0.000668613 0
-0.00276167 0.000299732 0
-0.00374101 -0.00102442 0
-0.00252034 -0.00462745 0
0.00103457 -0.00527907 0
-0.000925275 -0.00372672 0
-0.00154773 -0.00562017 0
0.000573786 0.011098 0
0.000405931 0.00426692 0
-0.000153396 0.000126056 0
0 0 0
0 0 0
0.00111573 0.00172759 0
0.000550697 0.000450342 0
-0.000449165 0.00194462 0
0 0 0
0 0 0
0 0 0
0 0 0
0 0 0
0 0 0
0 0 0
-0.00092858 0.0011374 0
-0.000897417 0.000300936 0
0 0 0
0 0 0
0 0 0
0 0 0
0 0 0
0 0 0
0 0 0
-0.0016634 -0.00668358 0
-0.00298919 -0.00501451 0
2.74575e-05 -0.00380209 0
0.00159772 -0.00555611 0
0.0028289 0.00609206 0
0.00357237 0.00918332 0
0.00051812 0.000853159 0
-0.000593209 -0.000636674 0
0 0 0
0 0 0
0.000911978 0.00236311 0
0.00113316 0.00175579 0
0 0 0
0 0 0
0 0 0
0 0 0
0 0 0
0 0 0
-0.000881818 0.00104768 0
-0.000537607 0.000690875 0
0.000385376 -0.000308924 0
0 0 0
0 0 0
0 0 0
0 0 0
0 0 0
0 0 0
-0.00140131 0.00137718 0
-0.00376405 -0.00247172 0
-0.00823051 -0.00361233 0
-0.00592539 -0.0135849 0
0.000366292 -0.00273768 0
-0.00150327 0.00379604 0
0.0010497 0.00912226 0
0.00505604 0.00141769 0
0.00208205 0.00114844 0
0 0 0
0 0 0
0.000883841 0.00131872 0
0.00109821 0.00164327 0
-0.00424883 0.00380029 0
-0.00760557 -0.000198016 0
-0.00564383 -0.00103464 0
-0.00562764 0.000941038 0
-0.00768782 0.000429154 0
-0.00672741 -0.000879905 0
-0.00462051 0.00128686 0
-0.00619833 0.000762196 0
-0.00673575 -0.000783221 0
-0.00534488 0.000106017 0
-0.00712541 0.00114635 0
-0.00812137 -0.000544799 0
-0.00571487 -0.00108229 0
-0.00573765 0.00121846 0
-0.00891523 0.00123819 0
-0.00642749 -0.000339724 0
-0.00399814 0.00201542 0
-0.00966213 -0.00011413 0
-0.0127445 -0.0167315 0
-0.00522459 -0.00969668 0
-0.0012604 0.00807167 0
-0.000255078 0.000390854 0
0.00116656 0.0016653 0
-9.7349e-05 0.00536947 0
0 0 0
0 0 0
0 0 0
-0.00237004 0.00639903 0
-0.00502908 0.0084974 0
-0.00536336 0.000202652 0
-0.00732838 -0.00091628 0
-0.00734188 0.000920223 0
-0.00528422 0.00038618 0
-0.00624235 -0.000970251 0
-0.00746968 0.00016869 0
-0.00513412 0.0010388 0
-0.00539701 0.000256323 0
-0.00803064 0.000356461 0
-0.00649684 0.00123904 0
-0.00550053 -0.000527859 0
-0.00790677 -0.00105647 0
-0.0078848 0.00109224 0
-0.00470613 0.0010924 0
-0.00579393 -0.00199101 0
-0.00703073 0.00170909 0
-0.00161218 -0.00189766 0
-0.00324507 -0.00800794 0
-0.00382942 -0.0234689 0
0.00173457 0.00756245 0
-0.00629363 0.00628782 0
-0.014198 0.0017815 0
-0.00788449 0.00148939 0
-0.00104238 -0.00164825 0
0 0 0
0 0 0
0.0017314 0.00838342 0
0.00180951 0.00870653 0
0 0 0
0 0 0
0 0 0
0 0 0
0 0 0
0 0 0
0 0 0
0.000492372 0.00118839 0
0.000458266 0.000894913 0
0 0 0
0 0 0
0 0 0
0 0 0
0 0 0
0 0 0
0 0 0
-0.00137407 -0.00247565 0
0.00614585 -0.0148187 0
0.00800855 -0.0173792 0
-0.00199401 0.00781409 0
-0.0118862 0.0238132 0
-0.0117211 -0.00291566 0
-0.00502339 -0.00675273 0
-0.00275739 -0.00645262 0
0 0 0
0 0 0
-0.000260184 0.00552192 0
0.00374211 0.00642235 0
0.00412449 0.00480976 0
0.000763794 0.000165716 0
0.000174247 0.000184081 0
0 0 0
0 0 0
0 0 0
0 0 0
0 0 0
0.000475795 0.00160325 0
0.000177632 0.000664171 0
-0.000550586 8.31703e-06 0
-0.000307272 -0.00017338 0
0 0 0
0 0 0
0 0 0
0 0 0
0 0 0
-0.00078449 -0.0287774 0
-0.000453501 -0.00588329 0
-0.00635457 0.0200941 0
-0.0093309 0.0188201 0
-0.000865076 -0.00795325 0
0.00497477 -0.0105223 0
-0.00152411 -0.00114303 0
-0.00987239 -0.000582555 0
-0.00507382 -0.00256754 0
-0.000664743 0.00415156 0
-0.00295912 0.00668412 0
-0.000390056 0.00272034 0
0.00462487 0.00101046 0
0.00187485 0.0018065 0
0.00153207 -0.0010668 0
0.00471049 -0.000979212 0
0.00378405 0.00161538 0
0.000734778 0.000422767 0
0.00284607 -0.00161455 0
0.00589943 0.00132748 0
0.00266925 0.00309743 0
0.00116695 -0.00121704 0
0.00650764 -0.00266137 0
0.00627508 0.00240814 0
-6.45601e-05 0.00153387 0
0.00321519 -0.00385038 0
0.00914973 1.17074e-05 0
0.00250357 0.00428967 0
-0.0110517 -0.0174482 0
-0.00808542 -0.0184909 0
0.0232934 0.0151252 0
0.0503477 0.00333007 0
0.0490259 -0.00405797 0
0.0353599 -0.00511908 0
0.0341485 0.00403 0
0.0386948 -0.000680719 0
0.0338956 -0.00266171 0
0.0316925 0.00124763 0
0.0396232 0.00400835 0
0.0421815 -0.00214642 0
0.0405231 0.000861457 0
0.0438672 0.00147743 0
0.0443813 -0.00114044 0
0.041203 -0.000986296 0
0.0421301 0.00164141 0
0.0451784 0.000348842 0
0.0430674 -0.00174097 0
0.0409216 0.000355855 0
0.0451535 0.00251077 0
0.0473819 -0.00113813 0
0.0418001 -0.00250768 0
0.0417243 0.00254666 0
0.0480631 0.00159433 0
0.0447835 -0.00386946 0
0.0388505 0.000106833 0
0.0454952 0.00433507 0
0.0489336 -0.00207297 0
0.0235962 -0.0152858 0

