# vtk DataFile Version 4.0
SiwiRVisFile
ASCII
DATASET STRUCTURED_POINTS
DIMENSIONS 28 14 1
ORIGIN 0 0 0
SPACING 1 1 1
POINT_DATA 392

SCALARS flags double 1
LOOKUP_TABLE default
1
1
1
1
1
1
1
1
1
1
1
1
1
1
1
1
1
1
1
1
1
1
1
1
1
1
1
1
1
1
1
1
1
1
1
1
1
1
1
1
1
1
1
1
1
1
1
1
1
1
1
1
1
1
1
1
1
1
1
1
1
1
1
1
1
1
1
1
1
1
1
1
1
1
1
1
1
1
1
1
1
1
1
1
1
1
1
1
1
1
1
1
1
1
1
1
1
1
1
1
1
1
1
1
1
1
1
1
1
1
1
1
1
1
1
1
1
1
1
1
1
1
1
1
1
1
1
1
1
1
1
1
1
1
1
1
1
1
1
1
1
1
1
1
1
1
1
1
1
1
1
1
1
1
1
1
1
1
1
1
1
1
1
1
1
1
1
1
1
1
1
1
1
1
1
1
1
1
1
1
1
1
1
1
1
1
1
1
1
1
1
1
1
1
1
1
1
1
1
1
1
1
1
1
1
1
1
1
1
1
1
1
1
1
1
1
1
1
1
1
1
1
1
1
1
1
1
1
1
1
1
1
1
1
1
1
1
1
1
1
1
1
1
1
1
1
1
1
1
1
1
1
1
1
1
1
1
1
1
1
1
1
1
1
1
1
1
1
1
1
1
1
1
1
1
1
1
1
1
1
1
1
1
1
1
1
1
1
1
1
1
1
1
1
1
1
1
1
1
1
1
1
1
1
1
1
1
1
1
1
1
1
1
1
1
1
1
1
1
1
1
1
1
1
1
1
1
1
1
1
1
1
1
1
1
1
1
1
1
1
1
1
1
1
1
1
1
1
1
1
1
1
1
1
1
1
1
1
1
1
1
1
1
1
1
1
1
1
1
1
1
1
1
1
1
1
1
1
1
1
1
1
1
1
1
1
1
1
1
1
1
1

SCALARS density double 1
LOOKUP_TABLE default
0.987837
0.980741
0.979945
0.998752
0.998193
0.998091
0.998056
1.00046
1.00123
1.00056
1.00299
1.00558
1.00504
1.00505
1.00609
1.00603
1.00589
1.00715
1.00827
1.00903
1.0077
1.01236
1.01751
1.01487
1.01086
1.01578
1.01794
1.01194
0.98499
0.978596
0.982713
0.999478
0.995625
0.998557
0.999981
0.999238
1.00016
1.00209
1.00317
1.00414
1.00565
1.00586
1.00549
1.00543
1.00654
1.00761
1.00753
1.0087
1.00858
1.01253
1.01632
1.01494
1.01259
1.01485
1.01637
1.01367
0.976575
0.987046
0
0
0
0
0
0
0
0
0
0
1.00563
1.00562
1.00535
0
0
0
0
0
0
0
1.01031
1.01375
1.01927
1.01328
1.01036
1.01775
0.96728
0.969727
0
0
0
0
0
0
0
0
0
0
0
1.0057
1.00553
0
0
0
0
0
0
0
0
1.01449
1.01467
1.01475
1.01438
1.01424
0.975276
0.961985
0
0
0
1.00497
0.999898
1.00525
1.00813
1.00488
1.00456
1.00778
1.00848
1.00463
1.00506
1.00918
1.00724
1.00435
1.00936
1.01207
1.00757
1.01142
1.01829
1.01538
1.00937
1.01605
1.0194
1.01114
0.967623
0.970605
0
0
0
0.999851
1.00526
1.00733
1.00279
1.00486
1.00955
1.00598
1.00432
1.00793
1.00797
1.0047
1.00623
1.00942
1.00794
1.00743
1.01133
1.01471
1.01259
1.01418
1.01626
1.01386
1.01308
1.01678
0.963582
0.977937
0.972023
0
0
1.00485
1.00867
1.00158
0
0
0
0
0
0
0
1.00505
1.00647
0
0
0
0
0
0
0
1.02041
1.01332
1.00939
1.01781
0.974026
0.964259
0.966783
0.974568
0
0
1.00005
1.00125
0
0
0
0
0
0
1.00653
1.00688
1.00508
0
0
0
0
0
0
1.01408
1.01082
1.01619
1.01872
1.00993
0.973716
0.961014
0.9668
0.978223
0
0
0.996096
1.00292
1.00182
0.990927
0.999168
1.00535
1.00392
1.0035
1.00609
1.00759
1.00597
1.0038
1.00691
1.00977
1.00581
1.01013
1.01637
1.0159
1.00977
1.0149
1.01932
1.01215
0.961589
0.978468
0.972382
0.958973
0
0
0
0.996972
0.998988
0.996392
1.00009
1.00052
1.00418
1.00773
1.00508
1.00388
1.00722
1.00806
1.00414
1.00556
1.0106
1.01352
1.00936
1.0143
1.01943
1.012
1.00765
1.02262
0.967478
0.974914
0.969879
0.963235
0.970717
0
0
0.990961
0.992572
0
0
0
0
0
0
0
1.00481
1.00747
0
0
0
0
0
0
0
1.01482
1.00978
1.01647
0.977689
0.953838
0.965032
0.983718
0.968654
0
0
0.986475
0.982933
0.99325
0.993797
0.986779
0
0
0
0
0
1.00059
1.00534
1.00555
1.00182
0
0
0
0
0
1.02901
1.0045
0.964472
0.966978
0.969562
0.969652
0.969146
0.976515
0.985331
0.989371
0.989071
0.989104
0.987754
0.993754
0.994295
0.99389
0.995289
1.00081
1.00148
1.00028
1.00451
1.00668
1.00177
1.00409
1.01437
1.01002
1.00362
1.0192
1.01199
1.0119
0.958419
0.984727
0.971799
0.957447
0.973089
0.982218
0.980327
0.988058
0.992793
0.987127
0.988006
0.994347
0.992991
0.995489
0.996169
0.997026
1.00262
1.0053
1.00013
1.0016
1.01062
1.0069
1.00093
1.01281
1.01989
1.00768
0.996524
1.03471

VECTORS velocity double
-0.000511422 0.000519556 0
-0.00553051 0.00240591 0
-0.0084035 9.16618e-06 0
-0.00803431 -0.000500273 0
-0.00707902 -8.83241e-05 0
-0.00772666 0.000506562 0
-0.00830007 -8.6782e-05 0
-0.00758536 -0.000373912 0
-0.00733111 0.000194849 0
-0.00799642 0.000260968 0
-0.00802544 -0.00020138 0
-0.00735841 -0.000265091 0
-0.00730412 0.000229373 0
-0.00687884 -0.000499414 0
-0.00610952 -3.17122e-06 0
-0.00644368 0.000208162 0
-0.00649977 -0.000153739 0
-0.00616648 -6.99621e-05 0
-0.00634708 0.000185609 0
-0.00659275 -3.08686e-05 0
-0.00625098 -0.000223663 0
-0.00622963 0.000294605 0
-0.00632756 -0.000327611 0
-0.00421865 -0.00109058 0
-0.00227363 -0.000225116 0
-0.00171296 -4.80029e-05 0
-0.00101167 -0.000576949 0
-4.29442e-05 -2.66452e-05 0
-0.0024647 0.00541592 0
-0.00726793 0.0071652 0
-0.00708653 0.000759803 0
-0.00745412 -0.000647495 0
-0.00841078 -7.59574e-05 0
-0.00776228 0.000487943 0
-0.00718947 -9.8123e-05 0
-0.00790374 -0.00038518 0
-0.00815833 0.000183071 0
-0.00749274 0.000260093 0
-0.00746397 -0.000250635 0
-0.0081308 -0.000365089 0
-0.00735797 -0.000841213 0
-0.00674461 -0.000736805 0
-0.00683273 -0.000447848 0
-0.00628743 0.000219142 0
-0.00623139 -0.000131284 0
-0.00656466 -7.20055e-05 0
-0.00638403 0.000193057 0
-0.00613844 -3.75521e-05 0
-0.00648011 -0.000155766 0
-0.00650158 0.000172108 0
-0.00563602 -0.00194835 0
-0.00501592 -0.0027832 0
-0.00423048 -0.00226193 0
-0.00226922 -0.00117805 0
-0.00146731 -0.00150339 0
-0.000551628 -0.000961606 0
-0.000681768 0.00961816 0
-0.00125343 0.0058796 0
0 0 0
0 0 0
0 0 0
0 0 0
0 0 0
0 0 0
0 0 0
0 0 0
0 0 0
0 0 0
-0.000827209 -0.000960978 0
-0.00079651 -0.00115983 0
5.70062e-05 -0.000630935 0
0 0 0
0 0 0
0 0 0
0 0 0
0 0 0
0 0 0
0 0 0
-0.000767471 -0.00123746 0
-0.00245516 -0.00182585 0
-0.00297536 -0.00392835 0
-0.00166882 -0.00211209 0
-0.00108839 -0.00145267 0
-0.000330459 -0.00220269 0
0.0018501 0.00836253 0
0.00193177 0.00711842 0
0 0 0
0 0 0
0 0 0
0 0 0
0 0 0
0 0 0
0 0 0
0 0 0
0 0 0
0 0 0
0 0 0
-0.000658455 -0.00159436 0
-0.000639699 -0.00116741 0
0 0 0
0 0 0
0 0 0
0 0 0
0 0 0
0 0 0
0 0 0
0 0 0
-0.00166391 -0.000304911 0
-0.00391121 -0.00278129 0
-0.00356678 -0.00374934 0
-0.000961073 -0.00391641 0
0.00063984 -0.00195764 0
0.000266375 0.00497646 0
0.000304404 0.0105201 0
0 0 0
0 0 0
0 0 0
-0.000106283 2.65406e-05 0
-0.00181526 0.00114988 0
-0.00207116 -0.000898372 0
-0.00126362 0.000265089 0
-0.00215689 0.000358431 0
-0.00238715 -0.000190593 0
-0.00187911 -0.000108823 0
-0.00203218 0.000130258 0
-0.00242375 -0.000840728 0
-0.00317419 -0.00117093 0
-0.00350941 -0.000379918 0
-0.0033075 2.40533e-06 0
-0.00397022 0.00049499 0
-0.00481819 0.000102956 0
-0.00426287 -0.000537739 0
-0.00331546 -0.000116663 0
-0.00417742 0.000805495 0
-0.00555062 0.000540001 0
-0.00394999 -0.000692484 0
-0.00229666 -0.000888405 0
-0.00261812 -0.00514061 0
-0.00256351 -0.00642334 0
-0.000817774 -0.00198665 0
-0.00243199 0.00816131 0
-0.00246598 0.00732197 0
0 0 0
0 0 0
0 0 0
-0.00100709 0.00187322 0
-0.000535936 0.000777578 0
-0.00100672 0.000247911 0
-0.00285781 0.000306333 0
-0.00196229 0.000440196 0
-0.00173381 -0.000213514 0
-0.00224066 -0.000110573 0
-0.00208828 0.00016583 0
-0.00210737 -0.000204909 0
-0.00291023 -0.000189449 0
-0.00353966 -0.000190606 0
-0.00439069 0.000826351 0
-0.00434272 0.000591179 0
-0.00349412 0.000129269 0
-0.00405038 -0.000544784 0
-0.0049966 -8.42369e-05 0
-0.00413603 0.000671836 0
-0.00276147 0.000302401 0
-0.00374107 -0.00102282 0
-0.00252025 -0.0046267 0
0.00103454 -0.00527892 0
-0.000925375 -0.00372674 0
-0.00154751 -0.0056203 0
0.000573072 0.0110995 0
0.000406392 0.00426853 0
-0.000153363 0.000129028 0
0 0 0
0 0 0
0.00111551 0.00172812 0
0.000550915 0.000450739 0
-0.000449391 0.00194489 0
0 0 0
0 0 0
0 0 0
0 0 0
0 0 0
0 0 0
0 0 0
-0.000929192 0.0011354 0
-0.000896915 0.000298971 0
0 0 0
0 0 0
0 0 0
0 0 0
0 0 0
0 0 0
0 0 0
-0.00166364 -0.00668382 0
-0.00298905 -0.00501423 0
2.75252e-05 -0.00380151 0
0.0015975 -0.00555551 0
0.00282853 0.00609003 0
0.00357287 0.00918136 0
0.000517393 0.000850033 0
-0.000592465 -0.00064122 0
0 0 0
0 0 0
0.000912322 0.00236264 0
0.00113277 0.00175543 0
0 0 0
0 0 0
0 0 0
0 0 0
0 0 0
0 0 0
-0.000881327 0.00104942 0
-0.000538038 0.000692585 0
0.000385837 -0.00030755 0
0 0 0
0 0 0
0 0 0
0 0 0
0 0 0
0 0 0
-0.00140127 0.00137723 0
-0.00376406 -0.00247187 0
-0.00823045 -0.00361293 0
-0.00592559 -0.0135858 0
0.000366523 -0.00273873 0
-0.00150443 0.00379824 0
0.00105061 0.00912523 0
0.00505514 0.00142136 0
0.00208288 0.00115307 0
0 0 0
0 0 0
0.00088439 0.00131927 0
0.00109765 0.00164364 0
-0.00424821 0.0038003 0
-0.00760618 -0.000198775 0
-0.00564332 -0.001036 0
-0.00562813 0.000939325 0
-0.00768732 0.000427728 0
-0.00672795 -0.000881724 0
-0.00462003 0.00128521 0
-0.00619879 0.000760745 0
-0.00673534 -0.000784009 0
-0.00534525 0.000105572 0
-0.00712504 0.00114633 0
-0.00812169 -0.000545571 0
-0.00571464 -0.00108289 0
-0.0057378 0.00121808 0
-0.00891515 0.0012381 0
-0.00642756 -0.000339708 0
-0.00399817 0.00201589 0
-0.00966203 -0.000113286 0
-0.0127444 -0.0167306 0
-0.00522486 -0.00969523 0
-0.00126072 0.00806928 0
-0.000254119 0.000387241 0
0.00116501 0.0016609 0
-9.62785e-05 0.00536384 0
0 0 0
0 0 0
0 0 0
-0.00237124 0.00639853 0
-0.00502824 0.00849725 0
-0.00536391 0.000203274 0
-0.00732795 -0.000915097 0
-0.00734242 0.000922084 0
-0.00528365 0.000387703 0
-0.00624285 -0.000968551 0
-0.00746929 0.000170252 0
-0.00513446 0.00104017 0
-0.00539663 0.000256788 0
-0.00803098 0.000356527 0
-0.00649648 0.001239 0
-0.00550091 -0.000527178 0
-0.00790653 -0.00105594 0
-0.00788497 0.00109267 0
-0.00470599 0.00109254 0
-0.00579406 -0.00199108 0
-0.0070305 0.00170841 0
-0.00161239 -0.00189877 0
-0.00324523 -0.0080088 0
-0.00382891 -0.0234702 0
0.00173062 0.00756557 0
-0.0062909 0.00629124 0
-0.014199 0.00178653 0
-0.00788398 0.00149586 0
-0.00104343 -0.00164101 0
0 0 0
0 0 0
0.00173014 0.00838472 0
0.00181024 0.00870768 0
0 0 0
0 0 0
0 0 0
0 0 0
0 0 0
0 0 0
0 0 0
0.000492613 0.00118795 0
0.000457745 0.000895784 0
0 0 0
0 0 0
0 0 0
0 0 0
0 0 0
0 0 0
0 0 0
-0.0013733 -0.0024743 0
0.00614602 -0.0148176 0
0.0080077 -0.0173782 0
-0.00199626 0.00781028 0
-0.0118853 0.0238092 0
-0.0117222 -0.00292229 0
-0.00502307 -0.00675856 0
-0.00275869 -0.00645747 0
0 0 0
0 0 0
-0.000262041 0.00551904 0
0.00374297 0.0064195 0
0.0041232 0.00480649 0
0.00076524 0.00016254 0
0.00017213 0.000181423 0
0 0 0
0 0 0
0 0 0
0 0 0
0 0 0
0.000475008 0.00160102 0
0.000177513 0.000661083 0
-0.000550228 5.14785e-06 0
-0.000308232 -0.000175745 0
0 0 0
0 0 0
0 0 0
0 0 0
0 0 0
-0.000785478 -0.0287788 0
-0.000453014 -0.00588457 0
-0.00636116 0.0200992 0
-0.00932948 0.0188276 0
-0.000865487 -0.0079461 0
0.00497393 -0.0105177 0
-0.00152312 -0.00113947 0
-0.00987274 -0.000579504 0
-0.00507259 -0.00256136 0
-0.00066602 0.00415574 0
-0.00295825 0.00668847 0
-0.000391156 0.00272427 0
0.00462537 0.00101437 0
0.00187458 0.0018093 0
0.00153238 -0.00106386 0
0.0047106 -0.00097605 0
0.00378379 0.00161851 0
0.000735161 0.000426259 0
0.00284611 -0.00161042 0
0.0058993 0.00133071 0
0.00266886 0.00310095 0
0.00116701 -0.00121362 0
0.00650764 -0.00265895 0
0.00627485 0.00240956 0
-6.39295e-05 0.0015364 0
0.00321513 -0.00384712 0
0.00914916 1.35939e-05 0
0.00250417 0.0042922 0
-0.011052 -0.0174466 0
-0.00808578 -0.0184897 0
0.0232919 0.0151145 0
0.0503461 0.00332131 0
0.0490262 -0.00406349 0
0.0353609 -0.00512283 0
0.0341478 0.00402477 0
0.0386953 -0.000684403 0
0.0338954 -0.00266652 0
0.031693 0.00124301 0
0.0396225 0.00400285 0
0.0421819 -0.00215038 0
0.0405228 0.000856772 0
0.0438672 0.00147382 0
0.0443813 -0.00114339 0
0.0412031 -0.000989516 0
0.0421299 0.00163771 0
0.0451784 0.000345403 0
0.0430674 -0.00174415 0
0.0409217 0.000352393 0
0.0451531 0.00250667 0
0.0473821 -0.00114133 0
0.0418002 -0.00251004 0
0.0417243 0.00254433 0
0.0480628 0.00159152 0
0.0447837 -0.00387162 0
0.0388505 0.000104746 0
0.0454946 0.00433218 0
0.0489336 -0.00207444 0
0.0235989 -0.0152872 0

