# vtk DataFile Version 4.0
SiwiRVisFile
ASCII
DATASET STRUCTURED_POINTS
DIMENSIONS 28 14 1
ORIGIN 0 0 0
SPACING 1 1 1
POINT_DATA 392

SCALARS flags double 1
LOOKUP_TABLE default
1
1
1
1
1
1
1
1
1
1
1
1
1
1
1
1
1
1
1
1
1
1
1
1
1
1
1
1
1
1
1
1
1
1
1
1
1
1
1
1
1
1
1
1
1
1
1
1
1
1
1
1
1
1
1
1
1
1
1
1
1
1
1
1
1
1
1
1
1
1
1
1
1
1
1
1
1
1
1
1
1
1
1
1
1
1
1
1
1
1
1
1
1
1
1
1
1
1
1
1
1
1
1
1
1
1
1
1
1
1
1
1
1
1
1
1
1
1
1
1
1
1
1
1
1
1
1
1
1
1
1
1
1
1
1
1
1
1
1
1
1
1
1
1
1
1
1
1
1
1
1
1
1
1
1
1
1
1
1
1
1
1
1
1
1
1
1
1
1
1
1
1
1
1
1
1
1
1
1
1
1
1
1
1
1
1
1
1
1
1
1
1
1
1
1
1
1
1
1
1
1
1
1
1
1
1
1
1
1
1
1
1
1
1
1
1
1
1
1
1
1
1
1
1
1
1
1
1
1
1
1
1
1
1
1
1
1
1
1
1
1
1
1
1
1
1
1
1
1
1
1
1
1
1
1
1
1
1
1
1
1
1
1
1
1
1
1
1
1
1
1
1
1
1
1
1
1
1
1
1
1
1
1
1
1
1
1
1
1
1
1
1
1
1
1
1
1
1
1
1
1
1
1
1
1
1
1
1
1
1
1
1
1
1
1
1
1
1
1
1
1
1
1
1
1
1
1
1
1
1
1
1
1
1
1
1
1
1
1
1
1
1
1
1
1
1
1
1
1
1
1
1
1
1
1
1
1
1
1
1
1
1
1
1
1
1
1
1
1
1
1
1
1
1
1
1
1
1
1
1
1
1
1
1
1
1
1
1
1
1
1
1

SCALARS density double 1
LOOKUP_TABLE default
0.987837
0.980741
0.979945
0.998752
0.998193
0.998091
0.998056
1.00046
1.00123
1.00056
1.00299
1.00558
1.00504
1.00505
1.00609
1.00603
1.00589
1.00715
1.00827
1.00903
1.0077
1.01236
1.01751
1.01487
1.01086
1.01578
1.01794
1.01194
0.98499
0.978596
0.982713
0.999478
0.995625
0.998557
0.999981
0.999238
1.00016
1.00209
1.00317
1.00414
1.00565
1.00586
1.00549
1.00543
1.00654
1.00761
1.00753
1.0087
1.00858
1.01253
1.01632
1.01494
1.01259
1.01485
1.01637
1.01367
0.976575
0.987046
0
0
0
0
0
0
0
0
0
0
1.00563
1.00562
1.00535
0
0
0
0
0
0
0
1.01031
1.01375
1.01927
1.01328
1.01036
1.01775
0.96728
0.969727
0
0
0
0
0
0
0
0
0
0
0
1.0057
1.00553
0
0
0
0
0
0
0
0
1.01449
1.01467
1.01475
1.01438
1.01424
0.975276
0.961985
0
0
0
1.00497
0.999898
1.00525
1.00813
1.00488
1.00456
1.00778
1.00848
1.00463
1.00506
1.00918
1.00724
1.00435
1.00936
1.01207
1.00757
1.01142
1.01829
1.01538
1.00937
1.01605
1.0194
1.01114
0.967623
0.970605
0
0
0
0.999851
1.00526
1.00733
1.00279
1.00486
1.00955
1.00598
1.00432
1.00793
1.00797
1.0047
1.00623
1.00942
1.00794
1.00743
1.01133
1.01471
1.01259
1.01418
1.01626
1.01386
1.01308
1.01678
0.963582
0.977937
0.972023
0
0
1.00485
1.00867
1.00158
0
0
0
0
0
0
0
1.00505
1.00647
0
0
0
0
0
0
0
1.02041
1.01332
1.00939
1.01781
0.974026
0.964259
0.966783
0.974568
0
0
1.00005
1.00125
0
0
0
0
0
0
1.00653
1.00688
1.00508
0
0
0
0
0
0
1.01408
1.01082
1.01619
1.01872
1.00993
0.973716
0.961014
0.9668
0.978223
0
0
0.996096
1.00292
1.00182
0.990927
0.999168
1.00535
1.00392
1.0035
1.00609
1.00759
1.00597
1.0038
1.00691
1.00977
1.00581
1.01013
1.01637
1.0159
1.00977
1.0149
1.01932
1.01215
0.961589
0.978468
0.972382
0.958973
0
0
0
0.996972
0.998988
0.996392
1.00009
1.00052
1.00418
1.00773
1.00508
1.00388
1.00722
1.00806
1.00414
1.00556
1.0106
1.01352
1.00936
1.0143
1.01943
1.012
1.00765
1.02262
0.967478
0.974914
0.969879
0.963235
0.970717
0
0
0.990961
0.992572
0
0
0
0
0
0
0
1.00481
1.00747
0
0
0
0
0
0
0
1.01482
1.00978
1.01647
0.977689
0.953838
0.965032
0.983718
0.968654
0
0
0.986475
0.982933
0.99325
0.993797
0.986779
0
0
0
0
0
1.00059
1.00534
1.00555
1.00182
0
0
0
0
0
1.02901
1.0045
0.964472
0.966978
0.969562
0.969652
0.969146
0.976515
0.985331
0.989371
0.989071
0.989104
0.987754
0.993754
0.994295
0.99389
0.995289
1.00081
1.00148
1.00028
1.00451
1.00668
1.00177
1.00409
1.01437
1.01002
1.00362
1.0192
1.01199
1.0119
0.958419
0.984727
0.971799
0.957447
0.973089
0.982218
0.980327
0.988058
0.992793
0.987127
0.988006
0.994347
0.992991
0.995489
0.996169
0.997026
1.00262
1.0053
1.00013
1.0016
1.01062
1.0069
1.00093
1.01281
1.01989
1.00768
0.996524
1.03471

VECTORS velocity double
-0.000511388 0.000519453 0
-0.00553052 0.00240578 0
-0.0084035 8.92215e-06 0
-0.00803432 -0.000500631 0
-0.00707901 -8.87091e-05 0
-0.00772667 0.00050616 0
-0.00830007 -8.72126e-05 0
-0.00758537 -0.000374368 0
-0.0073311 0.000194399 0
-0.00799643 0.000260514 0
-0.00802544 -0.000201838 0
-0.00735841 -0.000265549 0
-0.00730411 0.000228939 0
-0.00687884 -0.000499852 0
-0.00610951 -3.60898e-06 0
-0.00644368 0.000207709 0
-0.00649978 -0.000154216 0
-0.00616649 -7.04022e-05 0
-0.00634707 0.000185231 0
-0.00659276 -3.11959e-05 0
-0.00625097 -0.000223926 0
-0.00622963 0.000294413 0
-0.00632756 -0.000327748 0
-0.00421865 -0.00109068 0
-0.00227363 -0.000225154 0
-0.00171297 -4.80022e-05 0
-0.00101167 -0.000576933 0
-4.29487e-05 -2.6634e-05 0
-0.0024647 0.00541602 0
-0.00726795 0.00716534 0
-0.00708652 0.000760054 0
-0.00745413 -0.00064716 0
-0.00841078 -7.55777e-05 0
-0.00776229 0.000488365 0
-0.00718945 -9.7694e-05 0
-0.00790374 -0.00038474 0
-0.00815833 0.000183527 0
-0.00749274 0.000260559 0
-0.00746397 -0.000250187 0
-0.00813081 -0.000364644 0
-0.00735796 -0.000840784 0
-0.00674461 -0.000736386 0
-0.00683273 -0.000447426 0
-0.00628743 0.000219598 0
-0.00623139 -0.000130816 0
-0.00656466 -7.1569e-05 0
-0.00638403 0.000193442 0
-0.00613844 -3.72253e-05 0
-0.0064801 -0.000155509 0
-0.00650158 0.000172298 0
-0.00563602 -0.00194822 0
-0.00501592 -0.00278312 0
-0.00423048 -0.0022619 0
-0.00226923 -0.00117806 0
-0.00146731 -0.00150341 0
-0.000551623 -0.00096163 0
-0.00068174 0.00961806 0
-0.00125345 0.00587945 0
0 0 0
0 0 0
0 0 0
0 0 0
0 0 0
0 0 0
0 0 0
0 0 0
0 0 0
0 0 0
-0.000827208 -0.000961387 0
-0.000796519 -0.00116022 0
5.70181e-05 -0.000631322 0
0 0 0
0 0 0
0 0 0
0 0 0
0 0 0
0 0 0
0 0 0
-0.000767474 -0.00123758 0
-0.00245517 -0.00182591 0
-0.00297536 -0.00392836 0
-0.00166882 -0.00211206 0
-0.00108838 -0.00145262 0
-0.000330466 -0.00220264 0
0.00185003 0.00836263 0
0.00193185 0.00711853 0
0 0 0
0 0 0
0 0 0
0 0 0
0 0 0
0 0 0
0 0 0
0 0 0
0 0 0
0 0 0
0 0 0
-0.000658456 -0.00159401 0
-0.000639703 -0.00116708 0
0 0 0
0 0 0
0 0 0
0 0 0
0 0 0
0 0 0
0 0 0
0 0 0
-0.00166391 -0.000304867 0
-0.00391121 -0.0027813 0
-0.00356678 -0.00374939 0
-0.000961081 -0.00391648 0
0.000639855 -0.00195771 0
0.000266401 0.00497639 0
0.000304373 0.0105201 0
0 0 0
0 0 0
0 0 0
-0.000106324 2.65347e-05 0
-0.00181522 0.00114987 0
-0.0020712 -0.000898416 0
-0.00126359 0.000265003 0
-0.00215692 0.000358274 0
-0.00238712 -0.000190801 0
-0.00187914 -0.000109078 0
-0.00203216 0.000129967 0
-0.00242378 -0.000841049 0
-0.00317416 -0.00117121 0
-0.00350943 -0.000380132 0
-0.00330748 2.22713e-06 0
-0.00397023 0.000494786 0
-0.00481819 0.000102712 0
-0.00426287 -0.000537973 0
-0.00331546 -0.000116859 0
-0.00417742 0.000805355 0
-0.00555063 0.00053991 0
-0.00394998 -0.000692511 0
-0.00229667 -0.000888374 0
-0.00261811 -0.00514053 0
-0.00256351 -0.00642325 0
-0.000817783 -0.00198654 0
-0.00243199 0.00816134 0
-0.00246597 0.00732197 0
0 0 0
0 0 0
0 0 0
-0.00100713 0.00187323 0
-0.000535897 0.000777589 0
-0.00100676 0.000247946 0
-0.00285777 0.000306418 0
-0.00196233 0.000440357 0
-0.00173377 -0.000213309 0
-0.0022407 -0.000110322 0
-0.00208825 0.000166121 0
-0.00210739 -0.000204601 0
-0.00291021 -0.000189196 0
-0.00353968 -0.000190421 0
-0.00439067 0.000826517 0
-0.00434274 0.000591389 0
-0.00349412 0.000129513 0
-0.00405039 -0.000544562 0
-0.0049966 -8.40429e-05 0
-0.00413603 0.000671986 0
-0.00276147 0.000302495 0
-0.00374107 -0.0010228 0
-0.00252025 -0.00462676 0
0.00103454 -0.00527903 0
-0.00092539 -0.00372685 0
-0.00154748 -0.00562044 0
0.000573047 0.0110995 0
0.000406419 0.00426857 0
-0.000153384 0.000129168 0
0 0 0
0 0 0
0.00111547 0.00172812 0
0.000550955 0.000450731 0
-0.000449432 0.00194487 0
0 0 0
0 0 0
0 0 0
0 0 0
0 0 0
0 0 0
0 0 0
-0.000929238 0.00113524 0
-0.000896878 0.000298832 0
0 0 0
0 0 0
0 0 0
0 0 0
0 0 0
0 0 0
0 0 0
-0.00166367 -0.00668374 0
-0.00298903 -0.00501411 0
2.75241e-05 -0.00380136 0
0.00159748 -0.00555536 0
0.00282848 0.00608999 0
0.00357292 0.00918129 0
0.000517332 0.000849877 0
-0.000592407 -0.000641495 0
0 0 0
0 0 0
0.000912375 0.00236264 0
0.00113271 0.00175543 0
0 0 0
0 0 0
0 0 0
0 0 0
0 0 0
0 0 0
-0.000881293 0.00104956 0
-0.000538067 0.000692713 0
0.000385869 -0.000307461 0
0 0 0
0 0 0
0 0 0
0 0 0
0 0 0
0 0 0
-0.00140126 0.00137716 0
-0.00376407 -0.00247196 0
-0.00823043 -0.00361305 0
-0.00592562 -0.013586 0
0.000366553 -0.0027389 0
-0.0015045 0.00379832 0
0.00105067 0.00912536 0
0.00505506 0.00142156 0
0.00208297 0.00115336 0
0 0 0
0 0 0
0.000884456 0.00131927 0
0.00109759 0.00164364 0
-0.00424815 0.00380028 0
-0.00760624 -0.000198851 0
-0.00564327 -0.00103613 0
-0.00562817 0.000939179 0
-0.00768728 0.000427608 0
-0.00672799 -0.000881866 0
-0.00462 0.00128509 0
-0.00619882 0.000760645 0
-0.00673531 -0.000784049 0
-0.00534527 0.000105581 0
-0.00712502 0.00114639 0
-0.0081217 -0.000545541 0
-0.00571463 -0.00108285 0
-0.0057378 0.00121814 0
-0.00891516 0.00123817 0
-0.00642755 -0.000339629 0
-0.00399819 0.00201601 0
-0.009662 -0.000113151 0
-0.0127444 -0.0167305 0
-0.00522489 -0.00969504 0
-0.00126078 0.00806918 0
-0.000254035 0.000387053 0
0.0011649 0.00166064 0
-9.62002e-05 0.00536349 0
0 0 0
0 0 0
0 0 0
-0.00237135 0.00639852 0
-0.00502815 0.00849726 0
-0.00536396 0.00020334 0
-0.00732791 -0.000914988 0
-0.00734247 0.000922242 0
-0.00528361 0.000387831 0
-0.00624288 -0.000968418 0
-0.00746926 0.000170371 0
-0.00513448 0.00104026 0
-0.00539661 0.000256803 0
-0.008031 0.000356492 0
-0.00649646 0.00123894 0
-0.00550093 -0.00052721 0
-0.00790652 -0.00105597 0
-0.00788497 0.00109261 0
-0.004706 0.00109246 0
-0.00579407 -0.00199115 0
-0.00703048 0.00170828 0
-0.00161241 -0.00189892 0
-0.00324525 -0.00800891 0
-0.00382884 -0.0234703 0
0.00173037 0.00756573 0
-0.00629071 0.00629144 0
-0.0141991 0.00178683 0
-0.00788394 0.00149628 0
-0.0010435 -0.00164054 0
0 0 0
0 0 0
0.00173004 0.00838479 0
0.00181032 0.00870774 0
0 0 0
0 0 0
0 0 0
0 0 0
0 0 0
0 0 0
0 0 0
0.000492631 0.00118794 0
0.000457698 0.000895887 0
0 0 0
0 0 0
0 0 0
0 0 0
0 0 0
0 0 0
0 0 0
-0.0013732 -0.00247413 0
0.00614603 -0.0148175 0
0.00800763 -0.0173781 0
-0.00199643 0.00781006 0
-0.0118853 0.0238089 0
-0.0117223 -0.0029227 0
-0.00502305 -0.00675894 0
-0.00275877 -0.00645779 0
0 0 0
0 0 0
-0.000262182 0.00551885 0
0.00374304 0.00641932 0
0.0041231 0.00480627 0
0.000765355 0.00016231 0
0.000171967 0.000181226 0
0 0 0
0 0 0
0 0 0
0 0 0
0 0 0
0.00047493 0.00160082 0
0.000177506 0.000660793 0
-0.000550194 4.84937e-06 0
-0.00030832 -0.000175974 0
0 0 0
0 0 0
0 0 0
0 0 0
0 0 0
-0.000785595 -0.0287789 0
-0.000452946 -0.0058847 0
-0.00636157 0.0200995 0
-0.00932939 0.018828 0
-0.000865515 -0.00794565 0
0.00497388 -0.0105174 0
-0.00152306 -0.00113923 0
-0.00987276 -0.000579308 0
-0.0050725 -0.00256092 0
-0.000666118 0.00415602 0
-0.00295818 0.00668876 0
-0.000391241 0.00272454 0
0.00462541 0.00101465 0
0.00187456 0.0018095 0
0.00153241 -0.00106364 0
0.00471061 -0.000975819 0
0.00378377 0.00161875 0
0.000735189 0.000426523 0
0.00284612 -0.0016101 0
0.00589929 0.00133098 0
0.00266883 0.00310127 0
0.00116701 -0.00121331 0
0.00650764 -0.00265872 0
0.00627483 0.00240969 0
-6.38681e-05 0.00153664 0
0.00321512 -0.00384681 0
0.0091491 1.37817e-05 0
0.00250423 0.00429245 0
-0.0110521 -0.0174464 0
-0.00808581 -0.0184895 0
0.0232918 0.0151139 0
0.0503461 0.00332078 0
0.0490263 -0.00406384 0
0.0353609 -0.00512307 0
0.0341477 0.00402442 0
0.0386953 -0.000684646 0
0.0338954 -0.00266685 0
0.031693 0.0012427 0
0.0396225 0.00400247 0
0.0421819 -0.00215065 0
0.0405228 0.000856436 0
0.0438672 0.00147356 0
0.0443813 -0.00114361 0
0.0412031 -0.000989755 0
0.0421299 0.00163743 0
0.0451784 0.000345143 0
0.0430674 -0.0017444 0
0.0409217 0.000352104 0
0.045153 0.00250631 0
0.0473821 -0.00114162 0
0.0418002 -0.00251026 0
0.0417244 0.00254411 0
0.0480628 0.00159125 0
0.0447838 -0.00387183 0
0.0388505 0.000104539 0
0.0454946 0.00433189 0
0.0489336 -0.00207459 0
0.0235992 -0.0152873 0

