# vtk DataFile Version 4.0
SiwiRVisFile
ASCII
DATASET STRUCTURED_POINTS
DIMENSIONS 28 14 1
ORIGIN 0 0 0
SPACING 1 1 1
POINT_DATA 392

SCALARS flags double 1
LOOKUP_TABLE default
1
1
1
1
1
1
1
1
1
1
1
1
1
1
1
1
1
1
1
1
1
1
1
1
1
1
1
1
1
1
1
1
1
1
1
1
1
1
1
1
1
1
1
1
1
1
1
1
1
1
1
1
1
1
1
1
1
1
1
1
1
1
1
1
1
1
1
1
1
1
1
1
1
1
1
1
1
1
1
1
1
1
1
1
1
1
1
1
1
1
1
1
1
1
1
1
1
1
1
1
1
1
1
1
1
1
1
1
1
1
1
1
1
1
1
1
1
1
1
1
1
1
1
1
1
1
1
1
1
1
1
1
1
1
1
1
1
1
1
1
1
1
1
1
1
1
1
1
1
1
1
1
1
1
1
1
1
1
1
1
1
1
1
1
1
1
1
1
1
1
1
1
1
1
1
1
1
1
1
1
1
1
1
1
1
1
1
1
1
1
1
1
1
1
1
1
1
1
1
1
1
1
1
1
1
1
1
1
1
1
1
1
1
1
1
1
1
1
1
1
1
1
1
1
1
1
1
1
1
1
1
1
1
1
1
1
1
1
1
1
1
1
1
1
1
1
1
1
1
1
1
1
1
1
1
1
1
1
1
1
1
1
1
1
1
1
1
1
1
1
1
1
1
1
1
1
1
1
1
1
1
1
1
1
1
1
1
1
1
1
1
1
1
1
1
1
1
1
1
1
1
1
1
1
1
1
1
1
1
1
1
1
1
1
1
1
1
1
1
1
1
1
1
1
1
1
1
1
1
1
1
1
1
1
1
1
1
1
1
1
1
1
1
1
1
1
1
1
1
1
1
1
1
1
1
1
1
1
1
1
1
1
1
1
1
1
1
1
1
1
1
1
1
1
1
1
1
1
1
1
1
1
1
1
1
1
1
1
1
1
1
1

SCALARS density double 1
LOOKUP_TABLE default
0.987837
0.980741
0.979945
0.998752
0.998193
0.998091
0.998056
1.00046
1.00123
1.00056
1.00299
1.00558
1.00504
1.00505
1.00609
1.00603
1.00589
1.00715
1.00827
1.00903
1.0077
1.01236
1.01751
1.01487
1.01086
1.01578
1.01794
1.01194
0.98499
0.978596
0.982713
0.999478
0.995625
0.998557
0.999981
0.999238
1.00016
1.00209
1.00317
1.00414
1.00565
1.00586
1.00549
1.00543
1.00654
1.00761
1.00753
1.0087
1.00858
1.01253
1.01632
1.01494
1.01259
1.01485
1.01637
1.01367
0.976575
0.987046
0
0
0
0
0
0
0
0
0
0
1.00563
1.00562
1.00535
0
0
0
0
0
0
0
1.01031
1.01375
1.01927
1.01328
1.01036
1.01775
0.96728
0.969727
0
0
0
0
0
0
0
0
0
0
0
1.0057
1.00553
0
0
0
0
0
0
0
0
1.01449
1.01467
1.01475
1.01438
1.01424
0.975276
0.961985
0
0
0
1.00497
0.999898
1.00525
1.00813
1.00488
1.00456
1.00778
1.00848
1.00463
1.00506
1.00918
1.00724
1.00435
1.00936
1.01207
1.00757
1.01142
1.01829
1.01538
1.00937
1.01605
1.0194
1.01114
0.967623
0.970605
0
0
0
0.999851
1.00526
1.00733
1.00279
1.00486
1.00955
1.00598
1.00432
1.00793
1.00797
1.0047
1.00623
1.00942
1.00794
1.00743
1.01133
1.01471
1.01259
1.01418
1.01626
1.01386
1.01308
1.01678
0.963582
0.977937
0.972023
0
0
1.00485
1.00867
1.00158
0
0
0
0
0
0
0
1.00505
1.00647
0
0
0
0
0
0
0
1.02041
1.01332
1.00939
1.01781
0.974026
0.964259
0.966783
0.974568
0
0
1.00005
1.00125
0
0
0
0
0
0
1.00653
1.00688
1.00508
0
0
0
0
0
0
1.01408
1.01082
1.01619
1.01872
1.00993
0.973716
0.961014
0.9668
0.978223
0
0
0.996096
1.00292
1.00182
0.990927
0.999168
1.00535
1.00392
1.0035
1.00609
1.00759
1.00597
1.0038
1.00691
1.00977
1.00581
1.01013
1.01637
1.0159
1.00977
1.0149
1.01932
1.01215
0.961589
0.978468
0.972382
0.958973
0
0
0
0.996972
0.998988
0.996392
1.00009
1.00052
1.00418
1.00773
1.00508
1.00388
1.00722
1.00806
1.00414
1.00556
1.0106
1.01352
1.00936
1.0143
1.01943
1.012
1.00765
1.02262
0.967478
0.974914
0.969879
0.963235
0.970717
0
0
0.990961
0.992572
0
0
0
0
0
0
0
1.00481
1.00747
0
0
0
0
0
0
0
1.01482
1.00978
1.01647
0.977689
0.953838
0.965032
0.983718
0.968654
0
0
0.986475
0.982933
0.99325
0.993797
0.986779
0
0
0
0
0
1.00059
1.00534
1.00555
1.00182
0
0
0
0
0
1.02901
1.0045
0.964472
0.966978
0.969561
0.969652
0.969146
0.976515
0.985331
0.989371
0.989071
0.989104
0.987754
0.993754
0.994295
0.99389
0.995289
1.00081
1.00148
1.00028
1.00451
1.00668
1.00177
1.00409
1.01437
1.01002
1.00362
1.0192
1.01199
1.0119
0.958419
0.984727
0.971799
0.957447
0.973089
0.982218
0.980327
0.988058
0.992793
0.987127
0.988006
0.994347
0.992991
0.995489
0.996169
0.997026
1.00262
1.0053
1.00013
1.0016
1.01062
1.0069
1.00093
1.01281
1.01989
1.00768
0.996524
1.03471

VECTORS velocity double
-0.000511149 0.000518767 0
-0.00553064 0.00240497 0
-0.0084035 7.50264e-06 0
-0.00803438 -0.00050265 0
-0.00707894 -9.07987e-05 0
-0.0077267 0.000504049 0
-0.00830008 -8.9404e-05 0
-0.00758539 -0.00037663 0
-0.00733105 0.000192227 0
-0.00799647 0.000258372 0
-0.00802543 -0.000203951 0
-0.00735842 -0.000267621 0
-0.0073041 0.00022702 0
-0.00687888 -0.00050174 0
-0.00610946 -5.43535e-06 0
-0.00644372 0.000205901 0
-0.00649978 -0.000156029 0
-0.00616649 -7.2e-05 0
-0.00634706 0.000183939 0
-0.00659278 -3.22236e-05 0
-0.00625095 -0.000224646 0
-0.00622963 0.000294015 0
-0.00632756 -0.000327886 0
-0.00421864 -0.00109058 0
-0.00227362 -0.000224834 0
-0.00171296 -4.75014e-05 0
-0.00101166 -0.000576354 0
-4.29719e-05 -2.60961e-05 0
-0.00246463 0.0054167 0
-0.00726803 0.00716626 0
-0.0070864 0.00076151 0
-0.00745423 -0.000645271 0
-0.00841076 -7.3518e-05 0
-0.00776233 0.00049058 0
-0.00718939 -9.55106e-05 0
-0.00790378 -0.000382563 0
-0.00815833 0.000185731 0
-0.00749276 0.00026276 0
-0.00746392 -0.000248114 0
-0.00813086 -0.000362633 0
-0.00735791 -0.000838883 0
-0.00674465 -0.000734578 0
-0.00683272 -0.000445654 0
-0.00628743 0.00022142 0
-0.0062314 -0.000129035 0
-0.00656467 -6.99843e-05 0
-0.00638401 0.000194758 0
-0.00613845 -3.6199e-05 0
-0.00648008 -0.000154806 0
-0.00650159 0.000172687 0
-0.005636 -0.0019481 0
-0.00501593 -0.00278324 0
-0.00423047 -0.00226224 0
-0.00226923 -0.00117857 0
-0.00146732 -0.001504 0
-0.000551594 -0.000962211 0
-0.000681495 0.00961735 0
-0.00125363 0.00587848 0
0 0 0
0 0 0
0 0 0
0 0 0
0 0 0
0 0 0
0 0 0
0 0 0
0 0 0
0 0 0
-0.000827206 -0.000963205 0
-0.000796552 -0.00116192 0
5.70599e-05 -0.000632961 0
0 0 0
0 0 0
0 0 0
0 0 0
0 0 0
0 0 0
0 0 0
-0.00076749 -0.00123769 0
-0.00245517 -0.00182578 0
-0.00297538 -0.00392799 0
-0.00166879 -0.0021115 0
-0.00108839 -0.00145199 0
-0.000330494 -0.00220201 0
0.00184961 0.00836334 0
0.00193231 0.00711932 0
0 0 0
0 0 0
0 0 0
0 0 0
0 0 0
0 0 0
0 0 0
0 0 0
0 0 0
0 0 0
0 0 0
-0.00065845 -0.00159248 0
-0.000639729 -0.00116566 0
0 0 0
0 0 0
0 0 0
0 0 0
0 0 0
0 0 0
0 0 0
0 0 0
-0.00166387 -0.000305037 0
-0.00391125 -0.0027817 0
-0.00356675 -0.00375 0
-0.000961126 -0.00391719 0
0.00063993 -0.00195839 0
0.000266639 0.00497582 0
0.000304089 0.0105195 0
0 0 0
0 0 0
0 0 0
-0.000106542 2.64124e-05 0
-0.00181499 0.00114973 0
-0.00207141 -0.000898716 0
-0.00126339 0.00026451 0
-0.0021571 0.000357456 0
-0.00238698 -0.00019185 0
-0.00187927 -0.000110294 0
-0.00203206 0.000128633 0
-0.00242389 -0.000842459 0
-0.00317406 -0.00117241 0
-0.00350951 -0.000381006 0
-0.00330739 1.53918e-06 0
-0.00397029 0.000494036 0
-0.00481818 0.00010184 0
-0.00426287 -0.000538744 0
-0.00331547 -0.00011745 0
-0.00417737 0.000805038 0
-0.00555068 0.000539837 0
-0.00394992 -0.000692303 0
-0.00229672 -0.00088793 0
-0.00261807 -0.00513988 0
-0.00256352 -0.00642254 0
-0.000817809 -0.00198576 0
-0.0024321 0.00816173 0
-0.0024659 0.00732223 0
0 0 0
0 0 0
0 0 0
-0.00100736 0.00187334 0
-0.000535682 0.000777735 0
-0.00100697 0.000248202 0
-0.00285757 0.000306909 0
-0.00196253 0.000441197 0
-0.00173359 -0.000212276 0
-0.00224085 -0.000109119 0
-0.00208813 0.000167457 0
-0.00210748 -0.000203242 0
-0.00291011 -0.000188114 0
-0.00353977 -0.000189668 0
-0.00439061 0.000827157 0
-0.00434278 0.000592162 0
-0.00349412 0.000130388 0
-0.00405037 -0.000543833 0
-0.00499664 -8.34573e-05 0
-0.004136 0.00067233 0
-0.00276148 0.000302579 0
-0.00374103 -0.00102302 0
-0.00252026 -0.00462725 0
0.00103455 -0.00527971 0
-0.000925464 -0.00372757 0
-0.00154731 -0.00562128 0
0.00057302 0.0110993 0
0.000406506 0.00426852 0
-0.00015352 0.000129501 0
0 0 0
0 0 0
0.00111524 0.00172803 0
0.000551175 0.000450605 0
-0.000449651 0.00194468 0
0 0 0
0 0 0
0 0 0
0 0 0
0 0 0
0 0 0
0 0 0
-0.000929418 0.00113461 0
-0.000896742 0.000298307 0
0 0 0
0 0 0
0 0 0
0 0 0
0 0 0
0 0 0
0 0 0
-0.00166379 -0.00668323 0
-0.0029889 -0.00501342 0
2.75039e-05 -0.00380052 0
0.0015974 -0.00555455 0
0.00282823 0.00609008 0
0.00357318 0.00918121 0
0.000517079 0.000849466 0
-0.000592182 -0.000642405 0
0 0 0
0 0 0
0.000912649 0.00236274 0
0.00113241 0.00175556 0
0 0 0
0 0 0
0 0 0
0 0 0
0 0 0
0 0 0
-0.000881171 0.00105009 0
-0.000538169 0.00069321 0
0.000385981 -0.000307144 0
0 0 0
0 0 0
0 0 0
0 0 0
0 0 0
0 0 0
-0.00140115 0.0013767 0
-0.00376417 -0.00247252 0
-0.00823033 -0.00361374 0
-0.00592578 -0.0135868 0
0.000366706 -0.00273977 0
-0.00150478 0.00379838 0
0.00105092 0.00912567 0
0.00505474 0.00142216 0
0.00208333 0.00115431 0
0 0 0
0 0 0
0.000884775 0.00131918 0
0.0010973 0.00164354 0
-0.00424786 0.00380016 0
-0.0076065 -0.000199204 0
-0.00564307 -0.00103667 0
-0.00562834 0.000938563 0
-0.00768712 0.000427106 0
-0.00672815 -0.000882442 0
-0.00461987 0.00128459 0
-0.00619894 0.000760275 0
-0.00673523 -0.000784164 0
-0.00534533 0.00010572 0
-0.00712496 0.00114677 0
-0.0081217 -0.000545196 0
-0.00571466 -0.0010825 0
-0.00573775 0.00121857 0
-0.00891522 0.00123864 0
-0.00642748 -0.00033912 0
-0.00399829 0.00201666 0
-0.00966188 -0.000112447 0
-0.0127444 -0.0167299 0
-0.00522499 -0.00969409 0
-0.00126107 0.00806898 0
-0.000253678 0.000386529 0
0.00116448 0.00165981 0
-9.59015e-05 0.00536229 0
0 0 0
0 0 0
0 0 0
-0.00237184 0.00639856 0
-0.00502779 0.00849736 0
-0.00536421 0.000203648 0
-0.00732773 -0.000914514 0
-0.00734266 0.000922912 0
-0.00528342 0.000388367 0
-0.00624303 -0.000967882 0
-0.00746916 0.000170841 0
-0.00513456 0.00104057 0
-0.00539655 0.000256812 0
-0.00803105 0.000356258 0
-0.0064964 0.00123849 0
-0.00550097 -0.000527551 0
-0.00790654 -0.00105628 0
-0.0078849 0.00109213 0
-0.00470606 0.00109195 0
-0.00579406 -0.00199164 0
-0.00703039 0.00170753 0
-0.0016125 -0.00189969 0
-0.00324539 -0.00800946 0
-0.0038285 -0.023471 0
0.00172947 0.00756616 0
-0.00629003 0.00629205 0
-0.0141994 0.00178785 0
-0.00788377 0.00149773 0
-0.00104376 -0.00163888 0
0 0 0
0 0 0
0.00172962 0.00838502 0
0.00181063 0.00870792 0
0 0 0
0 0 0
0 0 0
0 0 0
0 0 0
0 0 0
0 0 0
0.000492702 0.00118793 0
0.000457496 0.000896385 0
0 0 0
0 0 0
0 0 0
0 0 0
0 0 0
0 0 0
0 0 0
-0.00137274 -0.00247327 0
0.00614606 -0.0148168 0
0.0080073 -0.0173776 0
-0.00199711 0.00780939 0
-0.011885 0.0238082 0
-0.0117226 -0.00292409 0
-0.00502297 -0.00676024 0
-0.00275906 -0.00645892 0
0 0 0
0 0 0
-0.000262736 0.00551818 0
0.00374334 0.00641867 0
0.00412267 0.00480545 0
0.000765813 0.000161437 0
0.000171327 0.000180472 0
0 0 0
0 0 0
0 0 0
0 0 0
0 0 0
0.00047458 0.00159994 0
0.000177486 0.000659524 0
-0.000550046 3.54043e-06 0
-0.000308703 -0.00017699 0
0 0 0
0 0 0
0 0 0
0 0 0
0 0 0
-0.000786159 -0.0287796 0
-0.000452605 -0.00588534 0
-0.006363 0.0201006 0
-0.00932905 0.0188295 0
-0.000865611 -0.00794414 0
0.0049737 -0.0105165 0
-0.00152284 -0.00113837 0
-0.00987289 -0.000578629 0
-0.00507213 -0.00255931 0
-0.000666504 0.00415701 0
-0.0029579 0.00668983 0
-0.000391577 0.0027255 0
0.00462559 0.0010157 0
0.00187444 0.00181027 0
0.00153252 -0.00106279 0
0.00471062 -0.00097494 0
0.00378371 0.0016197 0
0.000735297 0.000427546 0
0.00284617 -0.00160881 0
0.00589924 0.00133211 0
0.00266869 0.00310263 0
0.001167 -0.00121197 0
0.00650764 -0.00265771 0
0.00627472 0.00241025 0
-6.35952e-05 0.00153773 0
0.0032151 -0.0038454 0
0.00914883 1.46248e-05 0
0.00250455 0.00429359 0
-0.0110522 -0.0174457 0
-0.00808597 -0.0184889 0
0.0232915 0.0151116 0
0.0503458 0.00331902 0
0.0490263 -0.004065 0
0.0353612 -0.00512385 0
0.0341475 0.00402316 0
0.0386955 -0.000685512 0
0.0338953 -0.00266811 0
0.0316932 0.00124161 0
0.0396223 0.00400109 0
0.042182 -0.00215163 0
0.0405227 0.00085517 0
0.0438673 0.00147258 0
0.0443813 -0.00114446 0
0.0412031 -0.00099067 0
0.0421299 0.00163631 0
0.0451785 0.000344132 0
0.0430674 -0.00174541 0
0.0409218 0.000350914 0
0.0451528 0.00250474 0
0.0473822 -0.00114287 0
0.0418002 -0.00251123 0
0.0417244 0.00254315 0
0.0480627 0.00159004 0
0.0447839 -0.00387276 0
0.0388505 0.000103604 0
0.0454944 0.00433058 0
0.0489335 -0.00207528 0
0.0236008 -0.0152881 0

