# vtk DataFile Version 4.0
SiwiRVisFile
ASCII
DATASET STRUCTURED_POINTS
DIMENSIONS 28 14 1
ORIGIN 0 0 0
SPACING 1 1 1
POINT_DATA 392

SCALARS flags double 1
LOOKUP_TABLE default
1
1
1
1
1
1
1
1
1
1
1
1
1
1
1
1
1
1
1
1
1
1
1
1
1
1
1
1
1
1
1
1
1
1
1
1
1
1
1
1
1
1
1
1
1
1
1
1
1
1
1
1
1
1
1
1
1
1
1
1
1
1
1
1
1
1
1
1
1
1
1
1
1
1
1
1
1
1
1
1
1
1
1
1
1
1
1
1
1
1
1
1
1
1
1
1
1
1
1
1
1
1
1
1
1
1
1
1
1
1
1
1
1
1
1
1
1
1
1
1
1
1
1
1
1
1
1
1
1
1
1
1
1
1
1
1
1
1
1
1
1
1
1
1
1
1
1
1
1
1
1
1
1
1
1
1
1
1
1
1
1
1
1
1
1
1
1
1
1
1
1
1
1
1
1
1
1
1
1
1
1
1
1
1
1
1
1
1
1
1
1
1
1
1
1
1
1
1
1
1
1
1
1
1
1
1
1
1
1
1
1
1
1
1
1
1
1
1
1
1
1
1
1
1
1
1
1
1
1
1
1
1
1
1
1
1
1
1
1
1
1
1
1
1
1
1
1
1
1
1
1
1
1
1
1
1
1
1
1
1
1
1
1
1
1
1
1
1
1
1
1
1
1
1
1
1
1
1
1
1
1
1
1
1
1
1
1
1
1
1
1
1
1
1
1
1
1
1
1
1
1
1
1
1
1
1
1
1
1
1
1
1
1
1
1
1
1
1
1
1
1
1
1
1
1
1
1
1
1
1
1
1
1
1
1
1
1
1
1
1
1
1
1
1
1
1
1
1
1
1
1
1
1
1
1
1
1
1
1
1
1
1
1
1
1
1
1
1
1
1
1
1
1
1
1
1
1
1
1
1
1
1
1
1
1
1
1
1
1
1
1
1

SCALARS density double 1
LOOKUP_TABLE default
0.987837
0.980742
0.979945
0.998752
0.998192
0.998091
0.998056
1.00046
1.00123
1.00056
1.00299
1.00558
1.00504
1.00505
1.00609
1.00603
1.00589
1.00715
1.00827
1.00903
1.0077
1.01236
1.01751
1.01487
1.01086
1.01578
1.01794
1.01194
0.98499
0.978596
0.982713
0.999477
0.995624
0.998557
0.999981
0.999237
1.00016
1.00209
1.00317
1.00414
1.00565
1.00586
1.00549
1.00543
1.00654
1.00761
1.00753
1.0087
1.00858
1.01253
1.01631
1.01494
1.01259
1.01485
1.01637
1.01367
0.976575
0.987046
0
0
0
0
0
0
0
0
0
0
1.00563
1.00562
1.00535
0
0
0
0
0
0
0
1.01031
1.01375
1.01927
1.01328
1.01036
1.01775
0.967281
0.969728
0
0
0
0
0
0
0
0
0
0
0
1.0057
1.00553
0
0
0
0
0
0
0
0
1.01449
1.01467
1.01475
1.01437
1.01424
0.975276
0.961985
0
0
0
1.00497
0.999898
1.00525
1.00813
1.00488
1.00456
1.00778
1.00848
1.00463
1.00506
1.00918
1.00724
1.00435
1.00936
1.01207
1.00757
1.01142
1.01829
1.01538
1.00937
1.01605
1.0194
1.01114
0.967623
0.970605
0
0
0
0.999851
1.00526
1.00733
1.00279
1.00486
1.00955
1.00598
1.00432
1.00792
1.00797
1.0047
1.00623
1.00942
1.00794
1.00743
1.01133
1.01471
1.01259
1.01418
1.01626
1.01386
1.01308
1.01678
0.963582
0.977937
0.972024
0
0
1.00485
1.00867
1.00158
0
0
0
0
0
0
0
1.00505
1.00647
0
0
0
0
0
0
0
1.02041
1.01332
1.0094
1.01782
0.974026
0.964259
0.966784
0.974569
0
0
1.00005
1.00125
0
0
0
0
0
0
1.00653
1.00688
1.00508
0
0
0
0
0
0
1.01408
1.01082
1.01619
1.01871
1.00993
0.973717
0.961014
0.9668
0.978224
0
0
0.996096
1.00292
1.00182
0.990927
0.999169
1.00535
1.00392
1.0035
1.00609
1.00759
1.00597
1.0038
1.00691
1.00977
1.00581
1.01013
1.01636
1.01591
1.00977
1.01491
1.01932
1.01216
0.961589
0.978468
0.972382
0.958973
0
0
0
0.996972
0.998988
0.996392
1.00009
1.00052
1.00418
1.00773
1.00508
1.00388
1.00722
1.00806
1.00414
1.00556
1.0106
1.01352
1.00935
1.0143
1.01943
1.012
1.00764
1.02261
0.967479
0.974916
0.96988
0.963235
0.970717
0
0
0.990961
0.992573
0
0
0
0
0
0
0
1.00481
1.00747
0
0
0
0
0
0
0
1.01482
1.00979
1.01648
0.977689
0.953835
0.965034
0.98372
0.968655
0
0
0.986476
0.982934
0.993251
0.993798
0.98678
0
0
0
0
0
1.00059
1.00533
1.00555
1.00182
0
0
0
0
0
1.029
1.0045
0.964474
0.966983
0.969559
0.969652
0.969146
0.976515
0.985332
0.989372
0.989072
0.989104
0.987755
0.993754
0.994295
0.99389
0.995291
1.0008
1.00148
1.00027
1.00451
1.00668
1.00177
1.00409
1.01438
1.01001
1.00364
1.01918
1.01203
1.01189
0.958419
0.984726
0.971801
0.957448
0.973089
0.982219
0.980327
0.988058
0.992793
0.987127
0.988008
0.994346
0.992995
0.995487
0.996174
0.997021
1.00263
1.00529
1.00014
1.00159
1.01063
1.00689
1.00094
1.01281
1.01988
1.0077
0.996499
1.03471

VECTORS velocity double
-0.000510052 0.000517522 0
-0.00553119 0.00240323 0
-0.00840317 4.18004e-06 0
-0.00803457 -0.000507666 0
-0.00707859 -9.54211e-05 0
-0.0077266 0.000500135 0
-0.00830011 -9.29965e-05 0
-0.00758509 -0.000379611 0
-0.00733118 0.000189605 0
-0.00799593 0.000256634 0
-0.008026 -0.000205947 0
-0.00735742 -0.000268775 0
-0.00730494 0.000225343 0
-0.00687752 -0.000503316 0
-0.00611066 -9.18175e-06 0
-0.00644142 0.000200319 0
-0.00650206 -0.000168719 0
-0.0061627 -9.07074e-05 0
-0.00635099 0.000149736 0
-0.00658768 -7.85977e-05 0
-0.00625699 -0.000294427 0
-0.00622406 0.00021318 0
-0.00633459 -0.000418722 0
-0.00421467 -0.00118376 0
-0.00227561 -0.000307644 0
-0.00170838 -0.000121979 0
-0.00101638 -0.000650084 0
-3.86887e-05 -9.72212e-05 0
-0.00246408 0.00541758 0
-0.00726849 0.00716785 0
-0.00708573 0.000764878 0
-0.00745458 -0.000640623 0
-0.00841051 -6.90057e-05 0
-0.00776228 0.00049472 0
-0.00718927 -9.1903e-05 0
-0.00790349 -0.000379751 0
-0.00815859 0.000188388 0
-0.00749214 0.00026463 0
-0.00746447 -0.000246181 0
-0.00812985 -0.000361521 0
-0.00735882 -0.000837388 0
-0.00674314 -0.00073292 0
-0.00683383 -0.000442769 0
-0.00628555 0.000227269 0
-0.0062334 -0.000116332 0
-0.00656085 -5.13828e-05 0
-0.00638839 0.000229297 0
-0.00613235 1.0242e-05 0
-0.00648765 -8.58787e-05 0
-0.00649427 0.000255098 0
-0.00564271 -0.00186353 0
-0.0050095 -0.0027021 0
-0.0042353 -0.00218544 0
-0.00226295 -0.0011081 0
-0.0014746 -0.00143629 0
-0.000544107 -0.000896774 0
-0.000680256 0.00961696 0
-0.0012547 0.00587742 0
0 0 0
0 0 0
0 0 0
0 0 0
0 0 0
0 0 0
0 0 0
0 0 0
0 0 0
0 0 0
-0.000828524 -0.000964264 0
-0.000795109 -0.00116363 0
5.51576e-05 -0.000634832 0
0 0 0
0 0 0
0 0 0
0 0 0
0 0 0
0 0 0
0 0 0
-0.000777242 -0.0013141 0
-0.00244465 -0.00189379 0
-0.00298452 -0.00399377 0
-0.00166156 -0.0021766 0
-0.00109292 -0.00151536 0
-0.00032664 -0.00225771 0
0.00184853 0.00836109 0
0.00193342 0.00711779 0
0 0 0
0 0 0
0 0 0
0 0 0
0 0 0
0 0 0
0 0 0
0 0 0
0 0 0
0 0 0
0 0 0
-0.000656139 -0.00159143 0
-0.00064238 -0.00116431 0
0 0 0
0 0 0
0 0 0
0 0 0
0 0 0
0 0 0
0 0 0
0 0 0
-0.00165554 -0.000246486 0
-0.0039165 -0.00272814 0
-0.00356265 -0.00368652 0
-0.000966647 -0.00385481 0
0.000644992 -0.00190827 0
0.00026936 0.00498163 0
0.000301389 0.0105269 0
0 0 0
0 0 0
0 0 0
-0.000105394 2.78812e-05 0
-0.00181604 0.00115121 0
-0.00207018 -0.000897307 0
-0.0012645 0.00026462 0
-0.00215569 0.000356741 0
-0.00238861 -0.000193472 0
-0.00187665 -0.000110783 0
-0.00203546 0.000126733 0
-0.00241949 -0.000842948 0
-0.0031792 -0.00117406 0
-0.00350304 -0.00038465 0
-0.00331477 -6.2188e-06 0
-0.00396069 0.000485493 0
-0.00482888 7.8242e-05 0
-0.004252 -0.000567532 0
-0.00332518 -0.000161766 0
-0.00416937 0.000753129 0
-0.00555794 0.000483675 0
-0.00394634 -0.000734722 0
-0.00229198 -0.000938083 0
-0.00262777 -0.00521057 0
-0.00255391 -0.00648829 0
-0.000819092 -0.00205158 0
-0.00241945 0.00815264 0
-0.0024765 0.00730597 0
0 0 0
0 0 0
0 0 0
-0.00100556 0.00187162 0
-0.000537346 0.000775806 0
-0.00100534 0.000246668 0
-0.00285876 0.000306637 0
-0.00196128 0.000441867 0
-0.00173506 -0.000210717 0
-0.00223847 -0.000108607 0
-0.0020916 0.000169541 0
-0.00210163 -0.000203499 0
-0.00291831 -0.000186336 0
-0.00353011 -0.000185414 0
-0.00439959 0.000833586 0
-0.00433351 0.000601833 0
-0.0035046 0.000154149 0
-0.00403799 -0.00051654 0
-0.00500742 -3.8666e-05 0
-0.00413358 0.000726522 0
-0.00274789 0.000355585 0
-0.00376411 -0.000995976 0
-0.00249791 -0.00457563 0
0.000998412 -0.00519117 0
-0.000872993 -0.00363652 0
-0.00161382 -0.00552569 0
0.000569901 0.0111144 0
0.00040588 0.00429096 0
-0.00014643 0.000179339 0
0 0 0
0 0 0
0.00111747 0.00172991 0
0.000548512 0.000453178 0
-0.000446719 0.00194682 0
0 0 0
0 0 0
0 0 0
0 0 0
0 0 0
0 0 0
0 0 0
-0.000910512 0.00113063 0
-0.000914058 0.000291026 0
0 0 0
0 0 0
0 0 0
0 0 0
0 0 0
0 0 0
0 0 0
-0.00153838 -0.00673506 0
-0.00311 -0.00511095 0
0.000119425 -0.00395263 0
0.00153707 -0.00568426 0
0.00282506 0.00606503 0
0.00357646 0.00915189 0
0.000511103 0.000795899 0
-0.000585865 -0.00072605 0
0 0 0
0 0 0
0.000905673 0.00235913 0
0.00114012 0.00175028 0
0 0 0
0 0 0
0 0 0
0 0 0
0 0 0
0 0 0
-0.000907662 0.00105328 0
-0.000516246 0.000696235 0
0.000366104 -0.00029747 0
0 0 0
0 0 0
0 0 0
0 0 0
0 0 0
0 0 0
-0.00160294 0.0013562 0
-0.00358123 -0.00241099 0
-0.00840281 -0.00350588 0
-0.00575438 -0.013382 0
0.000182204 -0.00252524 0
-0.0015176 0.00382888 0
0.00106003 0.00917345 0
0.00504483 0.00148782 0
0.00209087 0.00124165 0
0 0 0
0 0 0
0.000875433 0.00132318 0
0.00110778 0.00165351 0
-0.00426264 0.00380799 0
-0.00758437 -0.000186404 0
-0.00567352 -0.0010485 0
-0.0055865 0.000955619 0
-0.00773735 0.000404693 0
-0.00667323 -0.000865854 0
-0.00467395 0.00126744 0
-0.00615361 0.000763232 0
-0.00676355 -0.000793958 0
-0.00533943 6.92611e-05 0
-0.00709482 0.00111157 0
-0.00819431 -0.000638945 0
-0.00558839 -0.00106893 0
-0.00593492 0.00109826 0
-0.00866809 0.00130731 0
-0.00667958 -0.000388909 0
-0.00372798 0.00199193 0
-0.00989048 -0.000243373 0
-0.0126422 -0.0168963 0
-0.00525059 -0.0100273 0
-0.00126252 0.00803258 0
-0.000240638 0.000324077 0
0.00114162 0.00157774 0
-8.24791e-05 0.00525328 0
0 0 0
0 0 0
0 0 0
-0.00236383 0.00638311 0
-0.00503869 0.00848075 0
-0.00534602 0.000190945 0
-0.00735749 -0.000902248 0
-0.00730308 0.000904708 0
-0.00533315 0.000409543 0
-0.006185 -0.000985498 0
-0.00752457 0.000195258 0
-0.00508496 0.00103285 0
-0.00543169 0.00025021 0
-0.0080218 0.000402365 0
-0.00647387 0.00127951 0
-0.0055699 -0.000436352 0
-0.00777867 -0.00107635 0
-0.0080652 0.00122256 0
-0.00447107 0.00101101 0
-0.00604327 -0.00190393 0
-0.00680417 0.00166172 0
-0.00179525 -0.00181158 0
-0.00307023 -0.00785229 0
-0.00400575 -0.0231118 0
0.00166179 0.00761824 0
-0.00624482 0.00635378 0
-0.0142132 0.00188409 0
-0.00787707 0.00162519 0
-0.00106044 -0.00149229 0
0 0 0
0 0 0
0.00172069 0.00841959 0
0.00180495 0.00874898 0
0 0 0
0 0 0
0 0 0
0 0 0
0 0 0
0 0 0
0 0 0
0.000522816 0.0012104 0
0.000429816 0.000848102 0
0 0 0
0 0 0
0 0 0
0 0 0
0 0 0
0 0 0
0 0 0
-0.00141941 -0.0025293 0
0.00600895 -0.0149097 0
0.00830992 -0.0176539 0
-0.00203654 0.00774208 0
-0.0118722 0.0237338 0
-0.0117409 -0.00305231 0
-0.00501934 -0.00687748 0
-0.00278449 -0.00655542 0
0 0 0
0 0 0
-0.000303687 0.00543856 0
0.00376307 0.00634118 0
0.00408211 0.00472436 0
0.0008303 0.000111769 0
7.38251e-05 0.000111795 0
0 0 0
0 0 0
0 0 0
0 0 0
0 0 0
0.000324925 0.00158475 0
0.000350338 0.00067332 0
-0.000799988 -3.55955e-05 0
-9.55468e-06 -0.000220843 0
0 0 0
0 0 0
0 0 0
0 0 0
0 0 0
-0.00120443 -0.0286684 0
-5.09227e-05 -0.00562554 0
-0.00648343 0.0201907 0
-0.00930388 0.0189694 0
-0.000872997 -0.00780713 0
0.00495662 -0.0104232 0
-0.00150123 -0.00107192 0
-0.00988414 -0.000515652 0
-0.00504217 -0.00242403 0
-0.000696307 0.00427647 0
-0.00294258 0.00679453 0
-0.000415674 0.00283158 0
0.00464765 0.00108283 0
0.00183945 0.00188958 0
0.00158286 -0.00100902 0
0.00464636 -0.000872896 0
0.00386925 0.00158241 0
0.000653283 0.000532605 0
0.00290592 -0.00166238 0
0.00583315 0.00142662 0
0.00278111 0.00301122 0
0.00101152 -0.00113979 0
0.00674867 -0.00266241 0
0.00582433 0.00241482 0
0.000507472 0.00180714 0
0.00262135 -0.00450606 0
0.00968291 0.000413026 0
0.00262144 0.00408113 0
-0.0117781 -0.0175269 0
-0.00748569 -0.0184227 0
0.0232651 0.0149177 0
0.0503156 0.00315308 0
0.0490336 -0.00417021 0
0.0353759 -0.00519762 0
0.0341382 0.00392398 0
0.0386985 -0.000765105 0
0.0339003 -0.00277915 0
0.0316915 0.0011103 0
0.0396175 0.00387248 0
0.0421735 -0.00225604 0
0.0405406 0.000766605 0
0.0438389 0.00137597 0
0.0444148 -0.00120196 0
0.0411562 -0.0010593 0
0.0421972 0.00164727 0
0.0450927 0.000258152 0
0.0431686 -0.00170796 0
0.0407964 0.000267004 0
0.0453069 0.00263029 0
0.0471996 -0.00123871 0
0.0419896 -0.00250583 0
0.0415732 0.00251838 0
0.04813 0.00145301 0
0.04488 -0.0035133 0
0.038519 -0.000159165 0
0.0457415 0.00451384 0
0.0482408 -0.00204818 0
0.0282955 -0.017179 0

