# vtk DataFile Version 4.0
SiwiRVisFile
ASCII
DATASET STRUCTURED_POINTS
DIMENSIONS 28 14 1
ORIGIN 0 0 0
SPACING 1 1 1
POINT_DATA 392

SCALARS flags double 1
LOOKUP_TABLE default
1
1
1
1
1
1
1
1
1
1
1
1
1
1
1
1
1
1
1
1
1
1
1
1
1
1
1
1
1
1
1
1
1
1
1
1
1
1
1
1
1
1
1
1
1
1
1
1
1
1
1
1
1
1
1
1
1
1
1
1
1
1
1
1
1
1
1
1
1
1
1
1
1
1
1
1
1
1
1
1
1
1
1
1
1
1
1
1
1
1
1
1
1
1
1
1
1
1
1
1
1
1
1
1
1
1
1
1
1
1
1
1
1
1
1
1
1
1
1
1
1
1
1
1
1
1
1
1
1
1
1
1
1
1
1
1
1
1
1
1
1
1
1
1
1
1
1
1
1
1
1
1
1
1
1
1
1
1
1
1
1
1
1
1
1
1
1
1
1
1
1
1
1
1
1
1
1
1
1
1
1
1
1
1
1
1
1
1
1
1
1
1
1
1
1
1
1
1
1
1
1
1
1
1
1
1
1
1
1
1
1
1
1
1
1
1
1
1
1
1
1
1
1
1
1
1
1
1
1
1
1
1
1
1
1
1
1
1
1
1
1
1
1
1
1
1
1
1
1
1
1
1
1
1
1
1
1
1
1
1
1
1
1
1
1
1
1
1
1
1
1
1
1
1
1
1
1
1
1
1
1
1
1
1
1
1
1
1
1
1
1
1
1
1
1
1
1
1
1
1
1
1
1
1
1
1
1
1
1
1
1
1
1
1
1
1
1
1
1
1
1
1
1
1
1
1
1
1
1
1
1
1
1
1
1
1
1
1
1
1
1
1
1
1
1
1
1
1
1
1
1
1
1
1
1
1
1
1
1
1
1
1
1
1
1
1
1
1
1
1
1
1
1
1
1
1
1
1
1
1
1
1
1
1
1
1
1
1
1
1
1
1

SCALARS density double 1
LOOKUP_TABLE default
0.987837
0.980741
0.979945
0.998752
0.998193
0.998091
0.998056
1.00046
1.00123
1.00056
1.00299
1.00558
1.00504
1.00505
1.00609
1.00603
1.00589
1.00715
1.00827
1.00903
1.0077
1.01236
1.01751
1.01487
1.01086
1.01578
1.01794
1.01194
0.98499
0.978596
0.982713
0.999478
0.995625
0.998557
0.999981
0.999238
1.00016
1.00209
1.00317
1.00414
1.00565
1.00586
1.00549
1.00543
1.00654
1.00761
1.00753
1.0087
1.00858
1.01253
1.01632
1.01494
1.01259
1.01485
1.01637
1.01367
0.976575
0.987046
0
0
0
0
0
0
0
0
0
0
1.00563
1.00562
1.00535
0
0
0
0
0
0
0
1.01031
1.01375
1.01927
1.01328
1.01036
1.01775
0.96728
0.969727
0
0
0
0
0
0
0
0
0
0
0
1.0057
1.00553
0
0
0
0
0
0
0
0
1.01449
1.01467
1.01475
1.01438
1.01424
0.975276
0.961985
0
0
0
1.00497
0.999898
1.00525
1.00813
1.00488
1.00456
1.00778
1.00848
1.00463
1.00506
1.00918
1.00724
1.00435
1.00936
1.01207
1.00757
1.01142
1.01829
1.01538
1.00937
1.01605
1.0194
1.01114
0.967623
0.970605
0
0
0
0.999851
1.00526
1.00733
1.00279
1.00486
1.00955
1.00598
1.00432
1.00793
1.00797
1.0047
1.00623
1.00942
1.00794
1.00743
1.01133
1.01471
1.01259
1.01418
1.01626
1.01386
1.01308
1.01678
0.963582
0.977937
0.972023
0
0
1.00485
1.00867
1.00158
0
0
0
0
0
0
0
1.00505
1.00647
0
0
0
0
0
0
0
1.02041
1.01332
1.00939
1.01781
0.974026
0.964259
0.966783
0.974568
0
0
1.00005
1.00125
0
0
0
0
0
0
1.00653
1.00688
1.00508
0
0
0
0
0
0
1.01408
1.01082
1.01619
1.01872
1.00993
0.973716
0.961014
0.9668
0.978223
0
0
0.996096
1.00292
1.00182
0.990927
0.999168
1.00535
1.00392
1.0035
1.00609
1.00759
1.00597
1.0038
1.00691
1.00977
1.00581
1.01013
1.01637
1.0159
1.00977
1.0149
1.01932
1.01215
0.961589
0.978468
0.972382
0.958973
0
0
0
0.996972
0.998988
0.996392
1.00009
1.00052
1.00418
1.00773
1.00508
1.00388
1.00722
1.00806
1.00414
1.00556
1.0106
1.01352
1.00936
1.0143
1.01943
1.012
1.00765
1.02262
0.967478
0.974914
0.969879
0.963235
0.970717
0
0
0.990961
0.992572
0
0
0
0
0
0
0
1.00481
1.00747
0
0
0
0
0
0
0
1.01482
1.00978
1.01647
0.977689
0.953838
0.965032
0.983718
0.968654
0
0
0.986475
0.982933
0.99325
0.993797
0.986779
0
0
0
0
0
1.00059
1.00534
1.00555
1.00182
0
0
0
0
0
1.02901
1.0045
0.964472
0.966978
0.969561
0.969652
0.969146
0.976515
0.985331
0.989371
0.989071
0.989104
0.987754
0.993754
0.994295
0.99389
0.995289
1.00081
1.00148
1.00028
1.00451
1.00668
1.00177
1.00409
1.01437
1.01002
1.00362
1.0192
1.01199
1.0119
0.958419
0.984727
0.971799
0.957447
0.973089
0.982218
0.980327
0.988058
0.992793
0.987127
0.988006
0.994347
0.992991
0.995489
0.996169
0.997026
1.00262
1.0053
1.00013
1.0016
1.01062
1.0069
1.00093
1.01281
1.01989
1.00768
0.996524
1.03471

VECTORS velocity double
-0.000510784 0.000517759 0
-0.00553085 0.00240387 0
-0.00840347 5.67635e-06 0
-0.00803449 -0.000505166 0
-0.00707884 -9.32807e-05 0
-0.00772675 0.000501648 0
-0.00830007 -9.17901e-05 0
-0.00758543 -0.000378995 0
-0.007331 0.000190047 0
-0.00799651 0.000256307 0
-0.00802542 -0.000205904 0
-0.00735843 -0.000269454 0
-0.00730408 0.000225401 0
-0.00687891 -0.000503248 0
-0.00610942 -6.76969e-06 0
-0.00644374 0.000204752 0
-0.00649978 -0.000157001 0
-0.00616649 -7.26923e-05 0
-0.00634705 0.000183562 0
-0.00659279 -3.23063e-05 0
-0.00625094 -0.00022443 0
-0.00622963 0.000294507 0
-0.00632756 -0.000327138 0
-0.0042186 -0.00108956 0
-0.00227366 -0.000223666 0
-0.00171294 -4.61722e-05 0
-0.00101166 -0.000574934 0
-4.29959e-05 -2.47531e-05 0
-0.0024645 0.00541769 0
-0.00726816 0.00716754 0
-0.00708623 0.000763383 0
-0.00745438 -0.000642921 0
-0.00841072 -7.1073e-05 0
-0.0077624 0.000493099 0
-0.00718932 -9.31325e-05 0
-0.00790382 -0.000380286 0
-0.00815833 0.000187942 0
-0.00749278 0.000264883 0
-0.00746388 -0.000246198 0
-0.0081309 -0.000360858 0
-0.00735787 -0.000837273 0
-0.00674468 -0.000733127 0
-0.00683272 -0.000444341 0
-0.00628744 0.000222583 0
-0.0062314 -0.000128077 0
-0.00656468 -6.92985e-05 0
-0.00638401 0.000195141 0
-0.00613846 -3.61157e-05 0
-0.00648007 -0.000155021 0
-0.00650159 0.000172177 0
-0.005636 -0.00194883 0
-0.00501592 -0.00278417 0
-0.00423049 -0.00226338 0
-0.00226921 -0.00117987 0
-0.00146733 -0.00150536 0
-0.000551555 -0.000963565 0
-0.000681068 0.00961626 0
-0.00125395 0.00587708 0
0 0 0
0 0 0
0 0 0
0 0 0
0 0 0
0 0 0
0 0 0
0 0 0
0 0 0
0 0 0
-0.000827216 -0.00096476 0
-0.000796558 -0.00116331 0
5.70733e-05 -0.000634207 0
0 0 0
0 0 0
0 0 0
0 0 0
0 0 0
0 0 0
0 0 0
-0.000767509 -0.00123702 0
-0.00245515 -0.00182492 0
-0.0029754 -0.00392692 0
-0.00166874 -0.00211025 0
-0.00108842 -0.00145066 0
-0.000330513 -0.0022007 0
0.00184907 0.00836449 0
0.0019329 0.00712054 0
0 0 0
0 0 0
0 0 0
0 0 0
0 0 0
0 0 0
0 0 0
0 0 0
0 0 0
0 0 0
0 0 0
-0.000658426 -0.0015912 0
-0.000639774 -0.00116455 0
0 0 0
0 0 0
0 0 0
0 0 0
0 0 0
0 0 0
0 0 0
0 0 0
-0.00166384 -0.000305841 0
-0.0039113 -0.00278267 0
-0.0035667 -0.00375118 0
-0.000961184 -0.00391847 0
0.000640011 -0.00195963 0
0.000267071 0.00497481 0
0.00030358 0.0105186 0
0 0 0
0 0 0
0 0 0
-0.000106799 2.61326e-05 0
-0.00181473 0.00114945 0
-0.00207166 -0.000899167 0
-0.00126317 0.000263884 0
-0.00215731 0.000356534 0
-0.00238683 -0.000192974 0
-0.00187938 -0.000111486 0
-0.00203198 0.000127422 0
-0.00242397 -0.000843639 0
-0.00317399 -0.00117336 0
-0.00350956 -0.000381612 0
-0.00330734 1.14416e-06 0
-0.0039703 0.00049369 0
-0.00481822 0.000101486 0
-0.00426281 -0.000538897 0
-0.00331554 -0.000117436 0
-0.00417728 0.000805329 0
-0.00555077 0.000540379 0
-0.00394983 -0.000691531 0
-0.00229678 -0.000887 0
-0.00261803 -0.00513879 0
-0.00256354 -0.00642141 0
-0.000817809 -0.00198453 0
-0.00243231 0.00816251 0
-0.00246574 0.0073229 0
0 0 0
0 0 0
0 0 0
-0.00100762 0.00187361 0
-0.000535428 0.000778032 0
-0.00100722 0.000248603 0
-0.00285734 0.000307531 0
-0.00196275 0.000442144 0
-0.00173341 -0.000211168 0
-0.002241 -0.000107939 0
-0.00208804 0.000168678 0
-0.00210753 -0.000202103 0
-0.00291005 -0.000187268 0
-0.00353981 -0.000189157 0
-0.00439059 0.000827516 0
-0.00434279 0.000592518 0
-0.00349415 0.000130741 0
-0.00405031 -0.000543689 0
-0.00499671 -8.34692e-05 0
-0.00413591 0.000672024 0
-0.00276156 0.000302038 0
-0.00374097 -0.00102373 0
-0.00252031 -0.00462813 0
0.00103457 -0.00528071 0
-0.000925544 -0.00372858 0
-0.00154713 -0.00562243 0
0.000573159 0.0110986 0
0.000406511 0.00426806 0
-0.000153712 0.000129271 0
0 0 0
0 0 0
0.00111498 0.00172777 0
0.000551435 0.000450329 0
-0.000449908 0.00194435 0
0 0 0
0 0 0
0 0 0
0 0 0
0 0 0
0 0 0
0 0 0
-0.000929522 0.0011342 0
-0.000896673 0.000298032 0
0 0 0
0 0 0
0 0 0
0 0 0
0 0 0
0 0 0
0 0 0
-0.00166391 -0.00668246 0
-0.00298875 -0.00501251 0
2.74598e-05 -0.00379948 0
0.00159733 -0.00555355 0
0.00282797 0.00609069 0
0.00357341 0.00918155 0
0.000516901 0.00084962 0
-0.000592047 -0.000642618 0
0 0 0
0 0 0
0.000912952 0.00236299 0
0.00113208 0.00175582 0
0 0 0
0 0 0
0 0 0
0 0 0
0 0 0
0 0 0
-0.000881119 0.00105042 0
-0.000538206 0.00069351 0
0.000386026 -0.000307023 0
0 0 0
0 0 0
0 0 0
0 0 0
0 0 0
0 0 0
-0.00140102 0.00137603 0
-0.0037643 -0.00247327 0
-0.0082302 -0.00361456 0
-0.00592595 -0.0135877 0
0.000366863 -0.00274075 0
-0.00150489 0.00379795 0
0.00105105 0.00912541 0
0.0050545 0.00142214 0
0.00208363 0.00115456 0
0 0 0
0 0 0
0.00088509 0.00131892 0
0.00109702 0.00164331 0
-0.00424761 0.00379999 0
-0.00760672 -0.000199526 0
-0.00564291 -0.00103712 0
-0.00562846 0.000938094 0
-0.00768702 0.000426728 0
-0.00672824 -0.000882829 0
-0.00461981 0.00128427 0
-0.00619899 0.000760093 0
-0.00673521 -0.000784141 0
-0.00534534 0.000106024 0
-0.00712498 0.00114733 0
-0.00812162 -0.000544516 0
-0.00571475 -0.00108185 0
-0.00573766 0.00121928 0
-0.00891531 0.00123933 0
-0.00642737 -0.000338407 0
-0.00399841 0.00201747 0
-0.00966173 -0.000111662 0
-0.0127444 -0.0167293 0
-0.00522506 -0.00969311 0
-0.0012614 0.00806925 0
-0.000253408 0.000386638 0
0.00116425 0.00165968 0
-9.57383e-05 0.00536192 0
0 0 0
0 0 0
0 0 0
-0.00237224 0.00639873 0
-0.00502748 0.00849752 0
-0.00536442 0.00020394 0
-0.00732759 -0.000914116 0
-0.0073428 0.000923421 0
-0.0052833 0.000388771 0
-0.00624312 -0.000967524 0
-0.0074691 0.000171138 0
-0.00513459 0.00104069 0
-0.00539655 0.000256716 0
-0.00803104 0.000355911 0
-0.0064964 0.00123787 0
-0.00550095 -0.000528205 0
-0.00790661 -0.00105686 0
-0.00788477 0.00109135 0
-0.00470618 0.0010912 0
-0.00579401 -0.0019923 0
-0.00703033 0.00170664 0
-0.00161257 -0.00190051 0
-0.00324554 -0.00801002 0
-0.00382816 -0.0234718 0
0.00172913 0.00756604 0
-0.00628972 0.0062921 0
-0.0141996 0.00178809 0
-0.00788364 0.00149824 0
-0.00104388 -0.00163824 0
0 0 0
0 0 0
0.00172933 0.00838503 0
0.0018109 0.00870789 0
0 0 0
0 0 0
0 0 0
0 0 0
0 0 0
0 0 0
0 0 0
0.000492744 0.00118802 0
0.000457334 0.000896877 0
0 0 0
0 0 0
0 0 0
0 0 0
0 0 0
0 0 0
0 0 0
-0.00137227 -0.0024724 0
0.00614605 -0.0148162 0
0.00800705 -0.0173771 0
-0.00199754 0.00780933 0
-0.0118847 0.023808 0
-0.0117227 -0.00292449 0
-0.00502294 -0.0067607 0
-0.00275917 -0.00645938 0
0 0 0
0 0 0
-0.000263073 0.00551793 0
0.00374357 0.00641843 0
0.00412238 0.00480508 0
0.000766111 0.000160966 0
0.000170933 0.000180046 0
0 0 0
0 0 0
0 0 0
0 0 0
0 0 0
0.00047428 0.00159925 0
0.000177486 0.000658482 0
-0.000549924 2.4635e-06 0
-0.00030901 -0.000177847 0
0 0 0
0 0 0
0 0 0
0 0 0
0 0 0
-0.000786711 -0.0287802 0
-0.000452244 -0.00588591 0
-0.00636346 0.0201008 0
-0.00932891 0.0188299 0
-0.00086565 -0.00794369 0
0.00497365 -0.0105162 0
-0.00152278 -0.00113801 0
-0.00987298 -0.000578388 0
-0.00507191 -0.0025585 0
-0.000666744 0.00415742 0
-0.0029577 0.00669031 0
-0.000391787 0.00272592 0
0.00462572 0.00101625 0
0.00187434 0.00181067 0
0.00153259 -0.0010623 0
0.00471061 -0.000974457 0
0.00378369 0.00162029 0
0.000735358 0.00042815 0
0.00284624 -0.00160798 0
0.0058992 0.00133291 0
0.00266859 0.0031037 0
0.00116698 -0.0012109 0
0.00650765 -0.00265687 0
0.00627462 0.0024107 0
-6.33637e-05 0.00153865 0
0.00321509 -0.00384421 0
0.00914859 1.53547e-05 0
0.00250485 0.00429457 0
-0.0110524 -0.017445 0
-0.00808611 -0.0184883 0
0.0232913 0.015111 0
0.0503458 0.00331858 0
0.0490262 -0.00406534 0
0.0353613 -0.00512408 0
0.0341473 0.00402261 0
0.0386956 -0.000685866 0
0.0338952 -0.00266874 0
0.0316933 0.00124117 0
0.0396222 0.00400045 0
0.0421821 -0.00215206 0
0.0405226 0.000854503 0
0.0438673 0.00147206 0
0.0443813 -0.00114495 0
0.0412032 -0.00099119 0
0.0421298 0.00163562 0
0.0451785 0.000343533 0
0.0430674 -0.00174605 0
0.0409219 0.000350069 0
0.0451527 0.00250352 0
0.0473822 -0.00114385 0
0.0418002 -0.00251203 0
0.0417244 0.00254236 0
0.0480626 0.00158901 0
0.044784 -0.00387356 0
0.0388505 0.000102795 0
0.0454942 0.00432945 0
0.0489335 -0.0020759 0
0.0236024 -0.015289 0

