# vtk DataFile Version 4.0
SiwiRVisFile
ASCII
DATASET STRUCTURED_POINTS
DIMENSIONS 28 14 1
ORIGIN 0 0 0
SPACING 1 1 1
POINT_DATA 392

SCALARS flags double 1
LOOKUP_TABLE default
1
1
1
1
1
1
1
1
1
1
1
1
1
1
1
1
1
1
1
1
1
1
1
1
1
1
1
1
1
1
1
1
1
1
1
1
1
1
1
1
1
1
1
1
1
1
1
1
1
1
1
1
1
1
1
1
1
1
1
1
1
1
1
1
1
1
1
1
1
1
1
1
1
1
1
1
1
1
1
1
1
1
1
1
1
1
1
1
1
1
1
1
1
1
1
1
1
1
1
1
1
1
1
1
1
1
1
1
1
1
1
1
1
1
1
1
1
1
1
1
1
1
1
1
1
1
1
1
1
1
1
1
1
1
1
1
1
1
1
1
1
1
1
1
1
1
1
1
1
1
1
1
1
1
1
1
1
1
1
1
1
1
1
1
1
1
1
1
1
1
1
1
1
1
1
1
1
1
1
1
1
1
1
1
1
1
1
1
1
1
1
1
1
1
1
1
1
1
1
1
1
1
1
1
1
1
1
1
1
1
1
1
1
1
1
1
1
1
1
1
1
1
1
1
1
1
1
1
1
1
1
1
1
1
1
1
1
1
1
1
1
1
1
1
1
1
1
1
1
1
1
1
1
1
1
1
1
1
1
1
1
1
1
1
1
1
1
1
1
1
1
1
1
1
1
1
1
1
1
1
1
1
1
1
1
1
1
1
1
1
1
1
1
1
1
1
1
1
1
1
1
1
1
1
1
1
1
1
1
1
1
1
1
1
1
1
1
1
1
1
1
1
1
1
1
1
1
1
1
1
1
1
1
1
1
1
1
1
1
1
1
1
1
1
1
1
1
1
1
1
1
1
1
1
1
1
1
1
1
1
1
1
1
1
1
1
1
1
1
1
1
1
1
1
1
1
1
1
1
1
1
1
1
1
1
1
1
1
1
1
1
1

SCALARS density double 1
LOOKUP_TABLE default
0.987837
0.980741
0.979945
0.998752
0.998193
0.998091
0.998056
1.00046
1.00123
1.00056
1.00299
1.00558
1.00504
1.00505
1.00609
1.00603
1.00589
1.00715
1.00827
1.00903
1.0077
1.01236
1.01751
1.01487
1.01086
1.01578
1.01794
1.01194
0.98499
0.978596
0.982713
0.999478
0.995625
0.998557
0.999981
0.999238
1.00016
1.00209
1.00317
1.00414
1.00565
1.00586
1.00549
1.00543
1.00654
1.00761
1.00753
1.0087
1.00858
1.01253
1.01632
1.01494
1.01259
1.01485
1.01637
1.01367
0.976575
0.987046
0
0
0
0
0
0
0
0
0
0
1.00563
1.00562
1.00535
0
0
0
0
0
0
0
1.01031
1.01375
1.01927
1.01328
1.01036
1.01775
0.96728
0.969727
0
0
0
0
0
0
0
0
0
0
0
1.0057
1.00553
0
0
0
0
0
0
0
0
1.01449
1.01467
1.01475
1.01438
1.01424
0.975276
0.961985
0
0
0
1.00497
0.999898
1.00525
1.00813
1.00488
1.00456
1.00778
1.00848
1.00463
1.00506
1.00918
1.00724
1.00435
1.00936
1.01207
1.00757
1.01142
1.01829
1.01538
1.00937
1.01605
1.0194
1.01114
0.967623
0.970605
0
0
0
0.999851
1.00526
1.00733
1.00279
1.00486
1.00955
1.00598
1.00432
1.00793
1.00797
1.0047
1.00623
1.00942
1.00794
1.00743
1.01133
1.01471
1.01259
1.01418
1.01626
1.01386
1.01308
1.01678
0.963582
0.977937
0.972023
0
0
1.00485
1.00867
1.00158
0
0
0
0
0
0
0
1.00505
1.00647
0
0
0
0
0
0
0
1.02041
1.01332
1.00939
1.01781
0.974026
0.964259
0.966783
0.974568
0
0
1.00005
1.00125
0
0
0
0
0
0
1.00653
1.00688
1.00508
0
0
0
0
0
0
1.01408
1.01082
1.01619
1.01872
1.00993
0.973716
0.961014
0.9668
0.978223
0
0
0.996096
1.00292
1.00182
0.990927
0.999168
1.00535
1.00392
1.0035
1.00609
1.00759
1.00597
1.0038
1.00691
1.00977
1.00581
1.01013
1.01637
1.0159
1.00977
1.0149
1.01932
1.01215
0.961589
0.978468
0.972382
0.958973
0
0
0
0.996972
0.998988
0.996392
1.00009
1.00052
1.00418
1.00773
1.00508
1.00388
1.00722
1.00806
1.00414
1.00556
1.0106
1.01352
1.00936
1.0143
1.01943
1.012
1.00765
1.02262
0.967478
0.974914
0.969879
0.963235
0.970717
0
0
0.990961
0.992572
0
0
0
0
0
0
0
1.00481
1.00747
0
0
0
0
0
0
0
1.01482
1.00978
1.01647
0.977689
0.953838
0.965032
0.983718
0.968654
0
0
0.986475
0.982933
0.99325
0.993797
0.986779
0
0
0
0
0
1.00059
1.00534
1.00555
1.00182
0
0
0
0
0
1.02901
1.0045
0.964472
0.966978
0.969561
0.969652
0.969146
0.976515
0.985331
0.989371
0.989071
0.989104
0.987754
0.993754
0.994295
0.99389
0.995289
1.00081
1.00148
1.00028
1.00451
1.00668
1.00177
1.00409
1.01437
1.01002
1.00362
1.0192
1.01199
1.0119
0.958419
0.984727
0.971799
0.957447
0.973089
0.982218
0.980327
0.988058
0.992793
0.987127
0.988006
0.994347
0.992991
0.995489
0.996169
0.997026
1.00262
1.0053
1.00013
1.0016
1.01062
1.0069
1.00093
1.01281
1.01989
1.00768
0.996524
1.03471

VECTORS velocity double
-0.000511032 0.00051844 0
-0.00553071 0.00240461 0
-0.00840349 6.88891e-06 0
-0.00803442 -0.000503504 0
-0.00707891 -9.1653e-05 0
-0.00772671 0.000503211 0
-0.00830008 -9.02485e-05 0
-0.00758541 -0.000377479 0
-0.00733103 0.000191434 0
-0.00799648 0.00025761 0
-0.00802543 -0.000204683 0
-0.00735843 -0.00026832 0
-0.00730409 0.000226391 0
-0.00687889 -0.000502338 0
-0.00610945 -5.98478e-06 0
-0.00644372 0.000205398 0
-0.00649978 -0.000156491 0
-0.00616649 -7.23684e-05 0
-0.00634705 0.000183685 0
-0.00659279 -3.23743e-05 0
-0.00625095 -0.000224686 0
-0.00622964 0.000294081 0
-0.00632756 -0.000327725 0
-0.00421863 -0.00109033 0
-0.00227363 -0.000224515 0
-0.00171296 -4.7121e-05 0
-0.00101166 -0.000575942 0
-4.29805e-05 -2.57077e-05 0
-0.00246459 0.00541702 0
-0.00726807 0.00716668 0
-0.00708635 0.00076214 0
-0.00745428 -0.000644474 0
-0.00841075 -7.26763e-05 0
-0.00776236 0.000491459 0
-0.00718937 -9.4669e-05 0
-0.00790379 -0.000381746 0
-0.00815833 0.000186536 0
-0.00749277 0.000263544 0
-0.0074639 -0.000247395 0
-0.00813087 -0.000361956 0
-0.00735789 -0.000838258 0
-0.00674466 -0.000734003 0
-0.00683272 -0.000445117 0
-0.00628744 0.000221928 0
-0.0062314 -0.00012858 0
-0.00656468 -6.96191e-05 0
-0.00638401 0.000195017 0
-0.00613846 -3.60483e-05 0
-0.00648007 -0.000154768 0
-0.00650159 0.000172615 0
-0.005636 -0.00194826 0
-0.00501592 -0.00278347 0
-0.00423048 -0.00226256 0
-0.00226922 -0.00117895 0
-0.00146732 -0.0015044 0
-0.000551581 -0.000962607 0
-0.000681363 0.009617 0
-0.00125373 0.00587803 0
0 0 0
0 0 0
0 0 0
0 0 0
0 0 0
0 0 0
0 0 0
0 0 0
0 0 0
0 0 0
-0.000827208 -0.000963806 0
-0.000796557 -0.00116247 0
5.70685e-05 -0.000633465 0
0 0 0
0 0 0
0 0 0
0 0 0
0 0 0
0 0 0
0 0 0
-0.000767497 -0.00123755 0
-0.00245516 -0.00182556 0
-0.00297538 -0.00392769 0
-0.00166877 -0.00211113 0
-0.0010884 -0.00145159 0
-0.000330502 -0.00220162 0
0.00184943 0.0083637 0
0.00193251 0.00711971 0
0 0 0
0 0 0
0 0 0
0 0 0
0 0 0
0 0 0
0 0 0
0 0 0
0 0 0
0 0 0
0 0 0
-0.000658443 -0.00159198 0
-0.000639743 -0.00116521 0
0 0 0
0 0 0
0 0 0
0 0 0
0 0 0
0 0 0
0 0 0
0 0 0
-0.00166386 -0.00030525 0
-0.00391127 -0.00278198 0
-0.00356673 -0.00375036 0
-0.000961146 -0.00391758 0
0.000639959 -0.00195877 0
0.000266772 0.00497551 0
0.000303932 0.0105193 0
0 0 0
0 0 0
0 0 0
-0.000106631 2.63303e-05 0
-0.0018149 0.00114964 0
-0.0020715 -0.000898861 0
-0.00126331 0.000264299 0
-0.00215718 0.000357133 0
-0.00238692 -0.00019225 0
-0.00187931 -0.000110732 0
-0.00203202 0.000128176 0
-0.00242392 -0.000842918 0
-0.00317403 -0.00117279 0
-0.00350953 -0.000381261 0
-0.00330737 1.35785e-06 0
-0.0039703 0.000493858 0
-0.00481819 0.000101645 0
-0.00426286 -0.000538878 0
-0.00331549 -0.000117522 0
-0.00417735 0.000805067 0
-0.00555071 0.000539957 0
-0.00394989 -0.000692093 0
-0.00229674 -0.000887652 0
-0.00261806 -0.00513953 0
-0.00256352 -0.00642218 0
-0.000817812 -0.00198537 0
-0.00243216 0.00816196 0
-0.00246585 0.00732242 0
0 0 0
0 0 0
0 0 0
-0.00100745 0.00187342 0
-0.000535594 0.000777824 0
-0.00100705 0.00024833 0
-0.00285749 0.000307119 0
-0.00196261 0.000441529 0
-0.00173353 -0.000211882 0
-0.00224091 -0.000108686 0
-0.0020881 0.000167917 0
-0.0021075 -0.000202799 0
-0.00291008 -0.000187776 0
-0.00353979 -0.000189451 0
-0.0043906 0.000827323 0
-0.00434279 0.000592345 0
-0.00349413 0.000130583 0
-0.00405035 -0.000543706 0
-0.00499666 -8.33856e-05 0
-0.00413597 0.000672301 0
-0.0027615 0.000302461 0
-0.00374101 -0.00102322 0
-0.00252028 -0.00462752 0
0.00103456 -0.00528003 0
-0.000925493 -0.0037279 0
-0.00154724 -0.00562166 0
0.00057305 0.0110991 0
0.000406518 0.0042684 0
-0.000153583 0.000129488 0
0 0 0
0 0 0
0.00111515 0.00172795 0
0.000551265 0.000450523 0
-0.00044974 0.00194458 0
0 0 0
0 0 0
0 0 0
0 0 0
0 0 0
0 0 0
0 0 0
-0.000929466 0.00113444 0
-0.000896708 0.000298175 0
0 0 0
0 0 0
0 0 0
0 0 0
0 0 0
0 0 0
0 0 0
-0.00166384 -0.00668298 0
-0.00298884 -0.00501311 0
2.74908e-05 -0.00380017 0
0.00159737 -0.00555421 0
0.00282813 0.00609024 0
0.00357326 0.00918128 0
0.000517004 0.000849451 0
-0.000592121 -0.00064257 0
0 0 0
0 0 0
0.000912756 0.00236281 0
0.00113229 0.00175564 0
0 0 0
0 0 0
0 0 0
0 0 0
0 0 0
0 0 0
-0.000881143 0.00105023 0
-0.000538191 0.000693345 0
0.000386006 -0.000307075 0
0 0 0
0 0 0
0 0 0
0 0 0
0 0 0
0 0 0
-0.00140111 0.00137648 0
-0.00376421 -0.00247277 0
-0.00823028 -0.00361402 0
-0.00592584 -0.0135871 0
0.000366763 -0.00274012 0
-0.00150484 0.00379828 0
0.00105098 0.00912565 0
0.00505464 0.00142223 0
0.00208345 0.00115449 0
0 0 0
0 0 0
0.000884891 0.00131911 0
0.00109719 0.00164347 0
-0.00424777 0.00380011 0
-0.00760658 -0.000199325 0
-0.00564301 -0.00103684 0
-0.00562839 0.000938373 0
-0.00768707 0.000426953 0
-0.00672819 -0.000882607 0
-0.00461984 0.00128445 0
-0.00619896 0.000760185 0
-0.00673521 -0.000784173 0
-0.00534534 0.00010581 0
-0.00712496 0.00114695 0
-0.00812168 -0.00054499 0
-0.00571469 -0.0010823 0
-0.00573773 0.00121879 0
-0.00891525 0.00123886 0
-0.00642745 -0.000338886 0
-0.00399833 0.00201694 0
-0.00966183 -0.00011217 0
-0.0127444 -0.0167297 0
-0.00522502 -0.00969373 0
-0.00126119 0.00806902 0
-0.000253568 0.000386489 0
0.00116437 0.00165968 0
-9.58247e-05 0.00536205 0
0 0 0
0 0 0
0 0 0
-0.002372 0.0063986 0
-0.00502767 0.00849741 0
-0.00536429 0.000203757 0
-0.00732768 -0.000914359 0
-0.00734272 0.000923118 0
-0.00528337 0.000388531 0
-0.00624307 -0.000967729 0
-0.00746913 0.000170971 0
-0.00513457 0.00104064 0
-0.00539654 0.00025679 0
-0.00803105 0.000356145 0
-0.00649639 0.00123829 0
-0.00550098 -0.000527751 0
-0.00790656 -0.00105646 0
-0.00788486 0.00109188 0
-0.0047061 0.00109171 0
-0.00579405 -0.00199186 0
-0.00703037 0.00170722 0
-0.00161252 -0.00189998 0
-0.00324544 -0.00800966 0
-0.00382838 -0.0234713 0
0.00172927 0.00756619 0
-0.00628987 0.00629214 0
-0.0141995 0.00178803 0
-0.00788371 0.00149803 0
-0.00104382 -0.00163852 0
0 0 0
0 0 0
0.00172949 0.00838505 0
0.00181074 0.00870794 0
0 0 0
0 0 0
0 0 0
0 0 0
0 0 0
0 0 0
0 0 0
0.000492721 0.00118795 0
0.000457432 0.000896565 0
0 0 0
0 0 0
0 0 0
0 0 0
0 0 0
0 0 0
0 0 0
-0.00137257 -0.00247296 0
0.00614606 -0.0148166 0
0.0080072 -0.0173774 0
-0.0019973 0.00780929 0
-0.0118849 0.023808 0
-0.0117226 -0.00292436 0
-0.00502295 -0.00676051 0
-0.00275912 -0.00645917 0
0 0 0
0 0 0
-0.000262886 0.00551804 0
0.00374344 0.00641853 0
0.00412255 0.00480526 0
0.000765942 0.000161215 0
0.000171152 0.000180276 0
0 0 0
0 0 0
0 0 0
0 0 0
0 0 0
0.000474464 0.00159967 0
0.000177483 0.000659115 0
-0.000549998 3.11812e-06 0
-0.000308824 -0.000177323 0
0 0 0
0 0 0
0 0 0
0 0 0
0 0 0
-0.000786362 -0.0287798 0
-0.000452475 -0.00588555 0
-0.00636329 0.0201008 0
-0.00932897 0.0188298 0
-0.000865633 -0.00794385 0
0.00497366 -0.0105163 0
-0.0015228 -0.00113818 0
-0.00987292 -0.000578486 0
-0.00507203 -0.00255892 0
-0.00066661 0.00415723 0
-0.00295782 0.00669008 0
-0.00039167 0.00272572 0
0.00462565 0.00101596 0
0.0018744 0.00181046 0
0.00153255 -0.00106257 0
0.00471062 -0.000974714 0
0.0037837 0.00161996 0
0.000735325 0.000427819 0
0.0028462 -0.00160845 0
0.00589922 0.00133244 0
0.00266865 0.00310305 0
0.001167 -0.00121154 0
0.00650764 -0.00265738 0
0.00627468 0.00241043 0
-6.35055e-05 0.00153809 0
0.0032151 -0.00384494 0
0.00914874 1.49055e-05 0
0.00250466 0.00429396 0
-0.0110523 -0.0174454 0
-0.00808603 -0.0184887 0
0.0232914 0.0151112 0
0.0503457 0.00331869 0
0.0490263 -0.00406523 0
0.0353613 -0.00512401 0
0.0341474 0.00402287 0
0.0386956 -0.000685705 0
0.0338953 -0.00266842 0
0.0316932 0.00124137 0
0.0396222 0.00400076 0
0.042182 -0.00215185 0
0.0405227 0.000854851 0
0.0438673 0.00147233 0
0.0443813 -0.00114468 0
0.0412031 -0.00099091 0
0.0421298 0.001636 0
0.0451785 0.000343862 0
0.0430674 -0.00174569 0
0.0409218 0.000350562 0
0.0451528 0.00250425 0
0.0473822 -0.00114326 0
0.0418002 -0.00251154 0
0.0417244 0.00254284 0
0.0480626 0.00158964 0
0.0447839 -0.00387307 0
0.0388505 0.000103293 0
0.0454943 0.00433015 0
0.0489335 -0.00207551 0
0.0236014 -0.0152884 0

