# vtk DataFile Version 4.0
SiwiRVisFile
ASCII
DATASET STRUCTURED_POINTS
DIMENSIONS 28 14 1
ORIGIN 0 0 0
SPACING 1 1 1
POINT_DATA 392

SCALARS flags double 1
LOOKUP_TABLE default
1
1
1
1
1
1
1
1
1
1
1
1
1
1
1
1
1
1
1
1
1
1
1
1
1
1
1
1
1
1
1
1
1
1
1
1
1
1
1
1
1
1
1
1
1
1
1
1
1
1
1
1
1
1
1
1
1
1
1
1
1
1
1
1
1
1
1
1
1
1
1
1
1
1
1
1
1
1
1
1
1
1
1
1
1
1
1
1
1
1
1
1
1
1
1
1
1
1
1
1
1
1
1
1
1
1
1
1
1
1
1
1
1
1
1
1
1
1
1
1
1
1
1
1
1
1
1
1
1
1
1
1
1
1
1
1
1
1
1
1
1
1
1
1
1
1
1
1
1
1
1
1
1
1
1
1
1
1
1
1
1
1
1
1
1
1
1
1
1
1
1
1
1
1
1
1
1
1
1
1
1
1
1
1
1
1
1
1
1
1
1
1
1
1
1
1
1
1
1
1
1
1
1
1
1
1
1
1
1
1
1
1
1
1
1
1
1
1
1
1
1
1
1
1
1
1
1
1
1
1
1
1
1
1
1
1
1
1
1
1
1
1
1
1
1
1
1
1
1
1
1
1
1
1
1
1
1
1
1
1
1
1
1
1
1
1
1
1
1
1
1
1
1
1
1
1
1
1
1
1
1
1
1
1
1
1
1
1
1
1
1
1
1
1
1
1
1
1
1
1
1
1
1
1
1
1
1
1
1
1
1
1
1
1
1
1
1
1
1
1
1
1
1
1
1
1
1
1
1
1
1
1
1
1
1
1
1
1
1
1
1
1
1
1
1
1
1
1
1
1
1
1
1
1
1
1
1
1
1
1
1
1
1
1
1
1
1
1
1
1
1
1
1
1
1
1
1
1
1
1
1
1
1
1
1
1
1
1
1
1
1
1

SCALARS density double 1
LOOKUP_TABLE default
0.987837
0.980741
0.979945
0.998752
0.998193
0.998091
0.998056
1.00046
1.00123
1.00056
1.00299
1.00558
1.00504
1.00505
1.00609
1.00603
1.00589
1.00715
1.00827
1.00903
1.0077
1.01236
1.01751
1.01487
1.01086
1.01578
1.01794
1.01194
0.98499
0.978596
0.982713
0.999478
0.995625
0.998557
0.999981
0.999238
1.00016
1.00209
1.00317
1.00414
1.00565
1.00586
1.00549
1.00543
1.00654
1.00761
1.00753
1.0087
1.00858
1.01253
1.01632
1.01494
1.01259
1.01485
1.01637
1.01367
0.976575
0.987046
0
0
0
0
0
0
0
0
0
0
1.00563
1.00562
1.00535
0
0
0
0
0
0
0
1.01031
1.01375
1.01927
1.01328
1.01036
1.01775
0.96728
0.969727
0
0
0
0
0
0
0
0
0
0
0
1.0057
1.00553
0
0
0
0
0
0
0
0
1.01449
1.01467
1.01475
1.01438
1.01424
0.975276
0.961985
0
0
0
1.00497
0.999898
1.00525
1.00813
1.00488
1.00456
1.00778
1.00848
1.00463
1.00506
1.00918
1.00724
1.00435
1.00936
1.01207
1.00757
1.01142
1.01829
1.01538
1.00937
1.01605
1.0194
1.01114
0.967623
0.970605
0
0
0
0.999851
1.00526
1.00733
1.00279
1.00486
1.00955
1.00598
1.00432
1.00793
1.00797
1.0047
1.00623
1.00942
1.00794
1.00743
1.01133
1.01471
1.01259
1.01418
1.01626
1.01386
1.01308
1.01678
0.963582
0.977937
0.972023
0
0
1.00485
1.00867
1.00158
0
0
0
0
0
0
0
1.00505
1.00647
0
0
0
0
0
0
0
1.02041
1.01332
1.00939
1.01781
0.974026
0.964259
0.966783
0.974568
0
0
1.00005
1.00125
0
0
0
0
0
0
1.00653
1.00688
1.00508
0
0
0
0
0
0
1.01408
1.01082
1.01619
1.01872
1.00993
0.973716
0.961014
0.9668
0.978223
0
0
0.996096
1.00292
1.00182
0.990927
0.999168
1.00535
1.00392
1.0035
1.00609
1.00759
1.00597
1.0038
1.00691
1.00977
1.00581
1.01013
1.01637
1.0159
1.00977
1.0149
1.01932
1.01215
0.961589
0.978468
0.972382
0.958973
0
0
0
0.996972
0.998988
0.996392
1.00009
1.00052
1.00418
1.00773
1.00508
1.00388
1.00722
1.00806
1.00414
1.00556
1.0106
1.01352
1.00936
1.0143
1.01943
1.012
1.00765
1.02262
0.967478
0.974914
0.969879
0.963235
0.970717
0
0
0.990961
0.992572
0
0
0
0
0
0
0
1.00481
1.00747
0
0
0
0
0
0
0
1.01482
1.00978
1.01647
0.977689
0.953838
0.965032
0.983718
0.968654
0
0
0.986475
0.982933
0.99325
0.993797
0.986779
0
0
0
0
0
1.00059
1.00534
1.00555
1.00182
0
0
0
0
0
1.02901
1.0045
0.964472
0.966978
0.969561
0.969652
0.969146
0.976515
0.985331
0.989371
0.989071
0.989104
0.987754
0.993754
0.994295
0.99389
0.995289
1.00081
1.00148
1.00028
1.00451
1.00668
1.00177
1.00409
1.01437
1.01002
1.00362
1.0192
1.01199
1.0119
0.958419
0.984727
0.971799
0.957447
0.973089
0.982218
0.980327
0.988058
0.992793
0.987127
0.988006
0.994347
0.992991
0.995489
0.996169
0.997026
1.00262
1.0053
1.00013
1.0016
1.01062
1.0069
1.00093
1.01281
1.01989
1.00768
0.996524
1.03471

VECTORS velocity double
-0.00051054 0.0005171 0
-0.00553099 0.00240318 0
-0.00840344 4.56993e-06 0
-0.00803456 -0.000506657 0
-0.00707877 -9.47019e-05 0
-0.00772678 0.000500321 0
-0.00830007 -9.30609e-05 0
-0.00758545 -0.000380207 0
-0.00733097 0.000188976 0
-0.00799653 0.000255338 0
-0.00802542 -0.000206776 0
-0.00735844 -0.000270224 0
-0.00730407 0.000224768 0
-0.00687892 -0.000503784 0
-0.00610941 -7.16313e-06 0
-0.00644374 0.000204537 0
-0.00649978 -0.000157034 0
-0.00616649 -7.25564e-05 0
-0.00634705 0.000183856 0
-0.00659278 -3.18562e-05 0
-0.00625095 -0.000223843 0
-0.00622963 0.000295205 0
-0.00632755 -0.000326321 0
-0.00421858 -0.00108859 0
-0.0022737 -0.000222665 0
-0.00171292 -4.51041e-05 0
-0.00101167 -0.000573817 0
-4.30078e-05 -2.36906e-05 0
-0.00246441 0.00541835 0
-0.00726826 0.00716836 0
-0.00708611 0.000764516 0
-0.00745448 -0.000641529 0
-0.00841068 -6.96737e-05 0
-0.00776244 0.000494493 0
-0.00718927 -9.18656e-05 0
-0.00790385 -0.000379121 0
-0.00815833 0.000189029 0
-0.00749279 0.00026588 0
-0.00746386 -0.000245344 0
-0.00813092 -0.000360115 0
-0.00735786 -0.000836639 0
-0.00674469 -0.000732606 0
-0.00683271 -0.000443941 0
-0.00628744 0.000222805 0
-0.0062314 -0.000128042 0
-0.00656468 -6.9434e-05 0
-0.006384 0.000194843 0
-0.00613846 -3.65645e-05 0
-0.00648007 -0.000155599 0
-0.00650158 0.000171466 0
-0.00563601 -0.00194961 0
-0.0050159 -0.00278505 0
-0.00423051 -0.00226435 0
-0.0022692 -0.0011809 0
-0.00146735 -0.00150641 0
-0.000551531 -0.000964616 0
-0.000680765 0.00961554 0
-0.00125418 0.00587618 0
0 0 0
0 0 0
0 0 0
0 0 0
0 0 0
0 0 0
0 0 0
0 0 0
0 0 0
0 0 0
-0.000827228 -0.000965381 0
-0.000796548 -0.00116383 0
5.70644e-05 -0.00063461 0
0 0 0
0 0 0
0 0 0
0 0 0
0 0 0
0 0 0
0 0 0
-0.00076752 -0.00123629 0
-0.00245514 -0.00182415 0
-0.00297542 -0.00392604 0
-0.0016687 -0.00210929 0
-0.00108844 -0.00144967 0
-0.000330518 -0.00219972 0
0.00184873 0.00836527 0
0.00193326 0.00712136 0
0 0 0
0 0 0
0 0 0
0 0 0
0 0 0
0 0 0
0 0 0
0 0 0
0 0 0
0 0 0
0 0 0
-0.000658404 -0.00159072 0
-0.000639806 -0.00116417 0
0 0 0
0 0 0
0 0 0
0 0 0
0 0 0
0 0 0
0 0 0
0 0 0
-0.00166382 -0.000306558 0
-0.00391133 -0.00278343 0
-0.00356666 -0.00375204 0
-0.000961219 -0.00391939 0
0.000640053 -0.00196052 0
0.000267383 0.0049741 0
0.000303213 0.0105179 0
0 0 0
0 0 0
0 0 0
-0.000106944 2.59147e-05 0
-0.00181459 0.00114923 0
-0.0020718 -0.000899465 0
-0.00126304 0.00026351 0
-0.00215741 0.000356029 0
-0.00238676 -0.000193562 0
-0.00187942 -0.000112055 0
-0.00203195 0.000126894 0
-0.00242399 -0.000844095 0
-0.00317398 -0.00117369 0
-0.00350956 -0.000381768 0
-0.00330735 1.10342e-06 0
-0.00397028 0.000493731 0
-0.00481826 0.000101583 0
-0.00426276 -0.000538652 0
-0.00331561 -0.000117118 0
-0.00417721 0.000805782 0
-0.00555082 0.000540958 0
-0.00394977 -0.000690867 0
-0.00229681 -0.000886301 0
-0.002618 -0.00513804 0
-0.00256356 -0.00642064 0
-0.000817795 -0.00198371 0
-0.00243247 0.00816309 0
-0.00246562 0.00732344 0
0 0 0
0 0 0
0 0 0
-0.00100778 0.00187383 0
-0.000535285 0.000778255 0
-0.00100735 0.000248874 0
-0.00285721 0.000307903 0
-0.00196286 0.000442663 0
-0.00173332 -0.000210588 0
-0.00224106 -0.000107374 0
-0.002088 0.000169215 0
-0.00210754 -0.00020166 0
-0.00291005 -0.000186979 0
-0.00353981 -0.000189034 0
-0.0043906 0.000827546 0
-0.00434277 0.000592475 0
-0.00349419 0.000130644 0
-0.00405026 -0.000543922 0
-0.00499677 -8.37838e-05 0
-0.00413584 0.00067154 0
-0.00276162 0.000301454 0
-0.00374093 -0.00102433 0
-0.00252035 -0.00462876 0
0.00103459 -0.00528136 0
-0.000925585 -0.00372922 0
-0.00154703 -0.00562315 0
0.000573314 0.011098 0
0.00040647 0.00426763 0
-0.000153832 0.000128871 0
0 0 0
0 0 0
0.00111484 0.00172755 0
0.000551582 0.000450117 0
-0.000450051 0.00194411 0
0 0 0
0 0 0
0 0 0
0 0 0
0 0 0
0 0 0
0 0 0
-0.000929534 0.00113411 0
-0.000896675 0.000298028 0
0 0 0
0 0 0
0 0 0
0 0 0
0 0 0
0 0 0
0 0 0
-0.00166396 -0.00668194 0
-0.00298866 -0.00501196 0
2.74264e-05 -0.00379888 0
0.00159731 -0.00555297 0
0.00282784 0.00609125 0
0.00357351 0.00918193 0
0.000516854 0.000849984 0
-0.00059203 -0.000642368 0
0 0 0
0 0 0
0.000913114 0.0023632 0
0.00113191 0.00175603 0
0 0 0
0 0 0
0 0 0
0 0 0
0 0 0
0 0 0
-0.000881131 0.00105049 0
-0.000538192 0.000693554 0
0.000386013 -0.000307064 0
0 0 0
0 0 0
0 0 0
0 0 0
0 0 0
0 0 0
-0.00140094 0.00137561 0
-0.00376438 -0.00247374 0
-0.00823012 -0.00361503 0
-0.00592604 -0.0135882 0
0.000366941 -0.00274127 0
-0.00150486 0.00379749 0
0.00105104 0.009125 0
0.00505443 0.00142182 0
0.00208375 0.00115432 0
0 0 0
0 0 0
0.000885241 0.0013187 0
0.0010969 0.00164313 0
-0.00424751 0.00379988 0
-0.0076068 -0.000199668 0
-0.00564286 -0.00103729 0
-0.00562849 0.00093794 0
-0.007687 0.000426606 0
-0.00672825 -0.000882921 0
-0.00461982 0.00128421 0
-0.00619898 0.000760102 0
-0.00673523 -0.000784059 0
-0.00534531 0.000106256 0
-0.00712502 0.00114768 0
-0.00812154 -0.000544015 0
-0.00571483 -0.00108138 0
-0.0057376 0.00121976 0
-0.00891538 0.00123977 0
-0.0064273 -0.000337957 0
-0.00399849 0.00201794 0
-0.00966165 -0.00011124 0
-0.0127445 -0.016729 0
-0.00522508 -0.00969262 0
-0.00126157 0.00806962 0
-0.000253321 0.000387014 0
0.00116424 0.00165997 0
-9.5729e-05 0.00536216 0
0 0 0
0 0 0
0 0 0
-0.00237239 0.00639888 0
-0.00502736 0.00849764 0
-0.0053645 0.000204075 0
-0.00732754 -0.000913959 0
-0.00734284 0.000923589 0
-0.00528327 0.000388901 0
-0.00624314 -0.00096744 0
-0.0074691 0.000171195 0
-0.00513458 0.00104065 0
-0.00539659 0.000256616 0
-0.008031 0.000355684 0
-0.00649643 0.00123747 0
-0.00550091 -0.00052868 0
-0.00790668 -0.00105728 0
-0.00788468 0.00109082 0
-0.00470627 0.00109072 0
-0.00579398 -0.00199271 0
-0.00703031 0.00170613 0
-0.0016126 -0.00190092 0
-0.00324562 -0.00801029 0
-0.00382799 -0.0234721 0
0.00172925 0.00756569 0
-0.00628976 0.00629185 0
-0.0141996 0.00178782 0
-0.0078836 0.00149803 0
-0.00104386 -0.00163844 0
0 0 0
0 0 0
0.00172925 0.00838493 0
0.00181101 0.00870778 0
0 0 0
0 0 0
0 0 0
0 0 0
0 0 0
0 0 0
0 0 0
0.00049275 0.00118812 0
0.000457276 0.000897114 0
0 0 0
0 0 0
0 0 0
0 0 0
0 0 0
0 0 0
0 0 0
-0.00137205 -0.00247197 0
0.00614604 -0.014816 0
0.00800697 -0.0173769 0
-0.00199762 0.00780962 0
-0.0118847 0.0238083 0
-0.0117227 -0.00292419 0
-0.00502295 -0.00676051 0
-0.00275912 -0.00645926 0
0 0 0
0 0 0
-0.000263128 0.00551801 0
0.00374363 0.00641852 0
0.00412231 0.00480512 0
0.000766175 0.00016094 0
0.000170865 0.000180004 0
0 0 0
0 0 0
0 0 0
0 0 0
0 0 0
0.000474158 0.001599 0
0.000177496 0.00065809 0
-0.000549878 2.0573e-06 0
-0.000309121 -0.000178184 0
0 0 0
0 0 0
0 0 0
0 0 0
0 0 0
-0.000786973 -0.0287805 0
-0.000452059 -0.00588617 0
-0.00636319 0.0201006 0
-0.00932894 0.0188295 0
-0.000865639 -0.00794401 0
0.00497368 -0.0105164 0
-0.00152282 -0.00113808 0
-0.009873 -0.00057849 0
-0.00507187 -0.00255851 0
-0.000666787 0.00415732 0
-0.00295765 0.00669024 0
-0.000391825 0.00272585 0
0.00462577 0.00101626 0
0.0018743 0.00181069 0
0.00153261 -0.00106225 0
0.0047106 -0.000974422 0
0.0037837 0.00162039 0
0.000735363 0.000428233 0
0.00284627 -0.00160782 0
0.00589918 0.00133314 0
0.00266856 0.00310407 0
0.00116696 -0.00121052 0
0.00650765 -0.00265655 0
0.00627458 0.00241086 0
-6.32721e-05 0.00153901 0
0.00321509 -0.00384374 0
0.00914848 1.5652e-05 0
0.00250499 0.00429497 0
-0.0110525 -0.0174447 0
-0.00808617 -0.0184881 0
0.0232913 0.0151115 0
0.0503459 0.00331905 0
0.0490262 -0.00406509 0
0.0353614 -0.00512391 0
0.0341473 0.00402271 0
0.0386957 -0.000685782 0
0.0338951 -0.00266874 0
0.0316933 0.00124128 0
0.0396222 0.00400051 0
0.0421821 -0.002152 0
0.0405226 0.00085448 0
0.0438673 0.00147203 0
0.0443813 -0.001145 0
0.0412032 -0.000991243 0
0.0421298 0.0016355 0
0.0451785 0.000343449 0
0.0430674 -0.00174619 0
0.0409219 0.000349833 0
0.0451526 0.0025031 0
0.0473823 -0.00114419 0
0.0418002 -0.00251233 0
0.0417244 0.00254207 0
0.0480625 0.00158861 0
0.0447841 -0.00387387 0
0.0388504 0.000102466 0
0.0454941 0.00432898 0
0.0489334 -0.00207616 0
0.0236032 -0.0152893 0

