# vtk DataFile Version 4.0
SiwiRVisFile
ASCII
DATASET STRUCTURED_POINTS
DIMENSIONS 28 14 1
ORIGIN 0 0 0
SPACING 1 1 1
POINT_DATA 392

SCALARS flags double 1
LOOKUP_TABLE default
1
1
1
1
1
1
1
1
1
1
1
1
1
1
1
1
1
1
1
1
1
1
1
1
1
1
1
1
1
1
1
1
1
1
1
1
1
1
1
1
1
1
1
1
1
1
1
1
1
1
1
1
1
1
1
1
1
1
1
1
1
1
1
1
1
1
1
1
1
1
1
1
1
1
1
1
1
1
1
1
1
1
1
1
1
1
1
1
1
1
1
1
1
1
1
1
1
1
1
1
1
1
1
1
1
1
1
1
1
1
1
1
1
1
1
1
1
1
1
1
1
1
1
1
1
1
1
1
1
1
1
1
1
1
1
1
1
1
1
1
1
1
1
1
1
1
1
1
1
1
1
1
1
1
1
1
1
1
1
1
1
1
1
1
1
1
1
1
1
1
1
1
1
1
1
1
1
1
1
1
1
1
1
1
1
1
1
1
1
1
1
1
1
1
1
1
1
1
1
1
1
1
1
1
1
1
1
1
1
1
1
1
1
1
1
1
1
1
1
1
1
1
1
1
1
1
1
1
1
1
1
1
1
1
1
1
1
1
1
1
1
1
1
1
1
1
1
1
1
1
1
1
1
1
1
1
1
1
1
1
1
1
1
1
1
1
1
1
1
1
1
1
1
1
1
1
1
1
1
1
1
1
1
1
1
1
1
1
1
1
1
1
1
1
1
1
1
1
1
1
1
1
1
1
1
1
1
1
1
1
1
1
1
1
1
1
1
1
1
1
1
1
1
1
1
1
1
1
1
1
1
1
1
1
1
1
1
1
1
1
1
1
1
1
1
1
1
1
1
1
1
1
1
1
1
1
1
1
1
1
1
1
1
1
1
1
1
1
1
1
1
1
1
1
1
1
1
1
1
1
1
1
1
1
1
1
1
1
1
1
1
1

SCALARS density double 1
LOOKUP_TABLE default
0.987837
0.980741
0.979945
0.998752
0.998193
0.998091
0.998056
1.00046
1.00123
1.00056
1.00299
1.00558
1.00504
1.00505
1.00609
1.00603
1.00589
1.00715
1.00827
1.00903
1.0077
1.01236
1.01751
1.01487
1.01086
1.01578
1.01794
1.01194
0.98499
0.978596
0.982713
0.999478
0.995625
0.998557
0.999981
0.999238
1.00016
1.00209
1.00317
1.00414
1.00565
1.00586
1.00549
1.00543
1.00654
1.00761
1.00753
1.0087
1.00858
1.01253
1.01632
1.01494
1.01259
1.01485
1.01637
1.01367
0.976575
0.987046
0
0
0
0
0
0
0
0
0
0
1.00563
1.00562
1.00535
0
0
0
0
0
0
0
1.01031
1.01375
1.01927
1.01328
1.01036
1.01775
0.96728
0.969727
0
0
0
0
0
0
0
0
0
0
0
1.0057
1.00553
0
0
0
0
0
0
0
0
1.01449
1.01467
1.01475
1.01438
1.01424
0.975276
0.961985
0
0
0
1.00497
0.999898
1.00525
1.00813
1.00488
1.00456
1.00778
1.00848
1.00463
1.00506
1.00918
1.00724
1.00435
1.00936
1.01207
1.00757
1.01142
1.01829
1.01538
1.00937
1.01605
1.0194
1.01114
0.967623
0.970605
0
0
0
0.999851
1.00526
1.00733
1.00279
1.00486
1.00955
1.00598
1.00432
1.00793
1.00797
1.0047
1.00623
1.00942
1.00794
1.00743
1.01133
1.01471
1.01259
1.01418
1.01626
1.01386
1.01308
1.01678
0.963582
0.977937
0.972023
0
0
1.00485
1.00867
1.00158
0
0
0
0
0
0
0
1.00505
1.00647
0
0
0
0
0
0
0
1.02041
1.01332
1.00939
1.01781
0.974026
0.964259
0.966783
0.974568
0
0
1.00005
1.00125
0
0
0
0
0
0
1.00653
1.00688
1.00508
0
0
0
0
0
0
1.01408
1.01082
1.01619
1.01872
1.00993
0.973716
0.961014
0.9668
0.978223
0
0
0.996096
1.00292
1.00182
0.990927
0.999168
1.00535
1.00392
1.0035
1.00609
1.00759
1.00597
1.0038
1.00691
1.00977
1.00581
1.01013
1.01637
1.0159
1.00977
1.0149
1.01932
1.01215
0.961589
0.978468
0.972382
0.958973
0
0
0
0.996972
0.998988
0.996392
1.00009
1.00052
1.00418
1.00773
1.00508
1.00388
1.00722
1.00806
1.00414
1.00556
1.0106
1.01352
1.00936
1.0143
1.01943
1.012
1.00765
1.02262
0.967478
0.974914
0.969879
0.963235
0.970717
0
0
0.990961
0.992572
0
0
0
0
0
0
0
1.00481
1.00747
0
0
0
0
0
0
0
1.01482
1.00978
1.01647
0.977689
0.953838
0.965032
0.983718
0.968654
0
0
0.986475
0.982933
0.99325
0.993797
0.986779
0
0
0
0
0
1.00059
1.00534
1.00555
1.00182
0
0
0
0
0
1.02901
1.0045
0.964472
0.966978
0.969561
0.969652
0.969146
0.976515
0.985331
0.989371
0.989071
0.989104
0.987754
0.993754
0.994295
0.99389
0.995289
1.00081
1.00148
1.00028
1.00451
1.00668
1.00177
1.00409
1.01437
1.01002
1.00362
1.0192
1.01199
1.0119
0.958419
0.984727
0.971799
0.957447
0.973089
0.982218
0.980327
0.988058
0.992793
0.987127
0.988006
0.994347
0.992991
0.995489
0.996169
0.997026
1.00262
1.0053
1.00013
1.0016
1.01062
1.0069
1.00093
1.01281
1.01989
1.00768
0.996524
1.03471

VECTORS velocity double
-0.000511091 0.000518606 0
-0.00553068 0.00240479 0
-0.0084035 7.19676e-06 0
-0.0080344 -0.000503077 0
-0.00707892 -9.12273e-05 0
-0.00772671 0.000503627 0
-0.00830008 -8.98309e-05 0
-0.0075854 -0.00037706 0
-0.00733104 0.000191823 0
-0.00799648 0.000257983 0
-0.00802543 -0.000204326 0
-0.00735842 -0.000267981 0
-0.00730409 0.000226695 0
-0.00687888 -0.000502051 0
-0.00610945 -5.7233e-06 0
-0.00644372 0.000205634 0
-0.00649978 -0.000156278 0
-0.00616649 -7.22026e-05 0
-0.00634706 0.000183794 0
-0.00659278 -3.23159e-05 0
-0.00625095 -0.000224682 0
-0.00622963 0.000294034 0
-0.00632756 -0.000327818 0
-0.00421863 -0.00109047 0
-0.00227363 -0.000224686 0
-0.00171296 -4.73213e-05 0
-0.00101166 -0.000576158 0
-4.29763e-05 -2.59115e-05 0
-0.00246461 0.00541685 0
-0.00726805 0.00716647 0
-0.00708638 0.000761824 0
-0.00745425 -0.000644873 0
-0.00841075 -7.30957e-05 0
-0.00776235 0.000491022 0
-0.00718938 -9.50852e-05 0
-0.00790379 -0.000382149 0
-0.00815833 0.000186141 0
-0.00749277 0.000263161 0
-0.00746391 -0.000247745 0
-0.00813087 -0.000362284 0
-0.0073579 -0.00083856 0
-0.00674465 -0.000734279 0
-0.00683272 -0.000445373 0
-0.00628743 0.00022169 0
-0.0062314 -0.00012879 0
-0.00656468 -6.97834e-05 0
-0.00638401 0.000194905 0
-0.00613846 -3.61067e-05 0
-0.00648008 -0.000154771 0
-0.00650159 0.000172665 0
-0.005636 -0.00194817 0
-0.00501593 -0.00278334 0
-0.00423048 -0.00226239 0
-0.00226923 -0.00117875 0
-0.00146732 -0.00150419 0
-0.000551588 -0.0009624 0
-0.000681431 0.00961718 0
-0.00125367 0.00587826 0
0 0 0
0 0 0
0 0 0
0 0 0
0 0 0
0 0 0
0 0 0
0 0 0
0 0 0
0 0 0
-0.000827207 -0.000963515 0
-0.000796555 -0.00116221 0
5.70647e-05 -0.000633224 0
0 0 0
0 0 0
0 0 0
0 0 0
0 0 0
0 0 0
0 0 0
-0.000767493 -0.00123763 0
-0.00245516 -0.00182567 0
-0.00297538 -0.00392785 0
-0.00166878 -0.00211132 0
-0.0010884 -0.0014518 0
-0.000330499 -0.00220182 0
0.00184952 0.00836352 0
0.00193241 0.00711951 0
0 0 0
0 0 0
0 0 0
0 0 0
0 0 0
0 0 0
0 0 0
0 0 0
0 0 0
0 0 0
0 0 0
-0.000658447 -0.00159222 0
-0.000639736 -0.00116543 0
0 0 0
0 0 0
0 0 0
0 0 0
0 0 0
0 0 0
0 0 0
0 0 0
-0.00166386 -0.000305135 0
-0.00391126 -0.00278183 0
-0.00356674 -0.00375018 0
-0.000961136 -0.00391738 0
0.000639944 -0.00195858 0
0.000266704 0.00497567 0
0.000304013 0.0105194 0
0 0 0
0 0 0
0 0 0
-0.000106587 2.63732e-05 0
-0.00181495 0.00114969 0
-0.00207146 -0.000898787 0
-0.00126335 0.000264405 0
-0.00215714 0.000357293 0
-0.00238695 -0.000192052 0
-0.00187929 -0.000110518 0
-0.00203204 0.000128398 0
-0.0024239 -0.000842697 0
-0.00317404 -0.00117261 0
-0.00350952 -0.00038114 0
-0.00330738 1.442e-06 0
-0.00397029 0.000493938 0
-0.00481819 0.000101732 0
-0.00426286 -0.000538822 0
-0.00331548 -0.000117496 0
-0.00417736 0.000805043 0
-0.0055507 0.000539888 0
-0.00394991 -0.000692205 0
-0.00229673 -0.000887796 0
-0.00261807 -0.00513971 0
-0.00256352 -0.00642237 0
-0.000817811 -0.00198557 0
-0.00243213 0.00816184 0
-0.00246588 0.00732232 0
0 0 0
0 0 0
0 0 0
-0.0010074 0.00187338 0
-0.000535638 0.000777778 0
-0.00100701 0.000248264 0
-0.00285753 0.000307013 0
-0.00196257 0.000441365 0
-0.00173356 -0.000212076 0
-0.00224088 -0.000108898 0
-0.00208811 0.000167693 0
-0.00210749 -0.000203013 0
-0.00291009 -0.000187938 0
-0.00353978 -0.000189553 0
-0.0043906 0.000827246 0
-0.00434278 0.000592262 0
-0.00349412 0.000130496 0
-0.00405036 -0.000543759 0
-0.00499665 -8.3411e-05 0
-0.00413599 0.000672326 0
-0.00276149 0.000302529 0
-0.00374102 -0.00102312 0
-0.00252027 -0.00462738 0
0.00103455 -0.00527987 0
-0.000925479 -0.00372773 0
-0.00154728 -0.00562147 0
0.000573033 0.0110992 0
0.000406514 0.00426847 0
-0.000153551 0.000129503 0
0 0 0
0 0 0
0.0011152 0.00172799 0
0.00055122 0.000450566 0
-0.000449696 0.00194463 0
0 0 0
0 0 0
0 0 0
0 0 0
0 0 0
0 0 0
0 0 0
-0.000929444 0.00113452 0
-0.000896723 0.000298235 0
0 0 0
0 0 0
0 0 0
0 0 0
0 0 0
0 0 0
0 0 0
-0.00166381 -0.00668311 0
-0.00298887 -0.00501327 0
2.74976e-05 -0.00380034 0
0.00159738 -0.00555438 0
0.00282818 0.00609015 0
0.00357322 0.00918124 0
0.000517039 0.000849449 0
-0.000592149 -0.000642501 0
0 0 0
0 0 0
0.000912703 0.00236277 0
0.00113235 0.0017556 0
0 0 0
0 0 0
0 0 0
0 0 0
0 0 0
0 0 0
-0.000881155 0.00105016 0
-0.000538181 0.000693282 0
0.000385995 -0.000307106 0
0 0 0
0 0 0
0 0 0
0 0 0
0 0 0
0 0 0
-0.00140113 0.00137659 0
-0.00376419 -0.00247265 0
-0.0082303 -0.00361388 0
-0.00592581 -0.0135869 0
0.000366735 -0.00273995 0
-0.00150481 0.00379834 0
0.00105095 0.00912567 0
0.00505469 0.00142221 0
0.00208339 0.00115441 0
0 0 0
0 0 0
0.000884834 0.00131915 0
0.00109724 0.00164351 0
-0.00424781 0.00380013 0
-0.00760654 -0.000199266 0
-0.00564304 -0.00103676 0
-0.00562836 0.000938464 0
-0.00768709 0.000427026 0
-0.00672817 -0.000882529 0
-0.00461986 0.00128451 0
-0.00619895 0.000760226 0
-0.00673522 -0.000784171 0
-0.00534534 0.000105763 0
-0.00712496 0.00114686 0
-0.00812169 -0.000545097 0
-0.00571467 -0.0010824 0
-0.00573774 0.00121868 0
-0.00891523 0.00123875 0
-0.00642746 -0.000339004 0
-0.00399831 0.0020168 0
-0.00966186 -0.000112307 0
-0.0127444 -0.0167298 0
-0.005225 -0.00969391 0
-0.00126113 0.00806899 0
-0.000253621 0.000386498 0
0.00116442 0.00165973 0
-9.58602e-05 0.00536215 0
0 0 0
0 0 0
0 0 0
-0.00237192 0.00639858 0
-0.00502773 0.00849738 0
-0.00536425 0.000203704 0
-0.0073277 -0.000914434 0
-0.00734269 0.000923019 0
-0.0052834 0.000388453 0
-0.00624306 -0.000967801 0
-0.00746914 0.00017091 0
-0.00513457 0.00104061 0
-0.00539655 0.000256803 0
-0.00803105 0.000356202 0
-0.00649639 0.00123839 0
-0.00550098 -0.000527648 0
-0.00790654 -0.00105637 0
-0.00788488 0.00109201 0
-0.00470608 0.00109183 0
-0.00579405 -0.00199174 0
-0.00703038 0.00170737 0
-0.00161251 -0.00189984 0
-0.00324542 -0.00800956 0
-0.00382844 -0.0234712 0
0.00172936 0.00756618 0
-0.00628994 0.0062921 0
-0.0141994 0.00178795 0
-0.00788374 0.0014979 0
-0.00104379 -0.00163868 0
0 0 0
0 0 0
0.00172955 0.00838504 0
0.00181069 0.00870793 0
0 0 0
0 0 0
0 0 0
0 0 0
0 0 0
0 0 0
0 0 0
0.000492712 0.00118794 0
0.000457462 0.000896477 0
0 0 0
0 0 0
0 0 0
0 0 0
0 0 0
0 0 0
0 0 0
-0.00137265 -0.00247311 0
0.00614606 -0.0148167 0
0.00800725 -0.0173775 0
-0.00199721 0.00780933 0
-0.0118849 0.0238081 0
-0.0117226 -0.00292425 0
-0.00502296 -0.00676039 0
-0.0027591 -0.00645906 0
0 0 0
0 0 0
-0.000262816 0.0055181 0
0.00374339 0.00641859 0
0.00412261 0.00480535 0
0.000765882 0.000161317 0
0.000171234 0.000180367 0
0 0 0
0 0 0
0 0 0
0 0 0
0 0 0
0.00047452 0.0015998 0
0.000177484 0.000659312 0
-0.000550021 3.32149e-06 0
-0.000308766 -0.000177162 0
0 0 0
0 0 0
0 0 0
0 0 0
0 0 0
-0.000786263 -0.0287797 0
-0.000452539 -0.00588545 0
-0.00636316 0.0201007 0
-0.009329 0.0188297 0
-0.000865623 -0.00794397 0
0.00497368 -0.0105163 0
-0.00152282 -0.00113827 0
-0.00987291 -0.000578549 0
-0.00507208 -0.0025591 0
-0.00066656 0.00415713 0
-0.00295786 0.00668997 0
-0.000391626 0.00272562 0
0.00462562 0.00101584 0
0.00187442 0.00181037 0
0.00153253 -0.00106267 0
0.00471062 -0.000974818 0
0.0037837 0.00161984 0
0.000735312 0.000427692 0
0.00284619 -0.00160862 0
0.00589923 0.00133228 0
0.00266867 0.00310285 0
0.001167 -0.00121175 0
0.00650764 -0.00265754 0
0.0062747 0.00241034 0
-6.35488e-05 0.00153791 0
0.0032151 -0.00384516 0
0.00914878 1.47697e-05 0
0.00250461 0.00429378 0
-0.0110523 -0.0174456 0
-0.008086 -0.0184888 0
0.0232914 0.0151114 0
0.0503458 0.00331883 0
0.0490263 -0.00406513 0
0.0353612 -0.00512394 0
0.0341474 0.004023 0
0.0386955 -0.000685618 0
0.0338953 -0.00266828 0
0.0316932 0.00124148 0
0.0396223 0.00400091 0
0.042182 -0.00215175 0
0.0405227 0.000854998 0
0.0438673 0.00147245 0
0.0443813 -0.00114458 0
0.0412031 -0.000990799 0
0.0421299 0.00163615 0
0.0451785 0.000343988 0
0.0430674 -0.00174555 0
0.0409218 0.000350729 0
0.0451528 0.00250448 0
0.0473822 -0.00114307 0
0.0418002 -0.00251139 0
0.0417244 0.00254299 0
0.0480627 0.00158983 0
0.0447839 -0.00387292 0
0.0388505 0.000103444 0
0.0454943 0.00433036 0
0.0489335 -0.0020754 0
0.0236011 -0.0152883 0

