# vtk DataFile Version 4.0
SiwiRVisFile
ASCII
DATASET STRUCTURED_POINTS
DIMENSIONS 28 14 1
ORIGIN 0 0 0
SPACING 1 1 1
POINT_DATA 392

SCALARS flags double 1
LOOKUP_TABLE default
1
1
1
1
1
1
1
1
1
1
1
1
1
1
1
1
1
1
1
1
1
1
1
1
1
1
1
1
1
1
1
1
1
1
1
1
1
1
1
1
1
1
1
1
1
1
1
1
1
1
1
1
1
1
1
1
1
1
1
1
1
1
1
1
1
1
1
1
1
1
1
1
1
1
1
1
1
1
1
1
1
1
1
1
1
1
1
1
1
1
1
1
1
1
1
1
1
1
1
1
1
1
1
1
1
1
1
1
1
1
1
1
1
1
1
1
1
1
1
1
1
1
1
1
1
1
1
1
1
1
1
1
1
1
1
1
1
1
1
1
1
1
1
1
1
1
1
1
1
1
1
1
1
1
1
1
1
1
1
1
1
1
1
1
1
1
1
1
1
1
1
1
1
1
1
1
1
1
1
1
1
1
1
1
1
1
1
1
1
1
1
1
1
1
1
1
1
1
1
1
1
1
1
1
1
1
1
1
1
1
1
1
1
1
1
1
1
1
1
1
1
1
1
1
1
1
1
1
1
1
1
1
1
1
1
1
1
1
1
1
1
1
1
1
1
1
1
1
1
1
1
1
1
1
1
1
1
1
1
1
1
1
1
1
1
1
1
1
1
1
1
1
1
1
1
1
1
1
1
1
1
1
1
1
1
1
1
1
1
1
1
1
1
1
1
1
1
1
1
1
1
1
1
1
1
1
1
1
1
1
1
1
1
1
1
1
1
1
1
1
1
1
1
1
1
1
1
1
1
1
1
1
1
1
1
1
1
1
1
1
1
1
1
1
1
1
1
1
1
1
1
1
1
1
1
1
1
1
1
1
1
1
1
1
1
1
1
1
1
1
1
1
1
1
1
1
1
1
1
1
1
1
1
1
1
1
1
1
1
1
1
1

SCALARS density double 1
LOOKUP_TABLE default
0.987837
0.980741
0.979945
0.998752
0.998193
0.998091
0.998056
1.00046
1.00123
1.00056
1.00299
1.00558
1.00504
1.00505
1.00609
1.00603
1.00589
1.00715
1.00827
1.00903
1.0077
1.01236
1.01751
1.01487
1.01086
1.01578
1.01794
1.01194
0.98499
0.978596
0.982713
0.999478
0.995625
0.998557
0.999981
0.999238
1.00016
1.00209
1.00317
1.00414
1.00565
1.00586
1.00549
1.00543
1.00654
1.00761
1.00753
1.0087
1.00858
1.01253
1.01632
1.01494
1.01259
1.01485
1.01637
1.01367
0.976575
0.987046
0
0
0
0
0
0
0
0
0
0
1.00563
1.00562
1.00535
0
0
0
0
0
0
0
1.01031
1.01375
1.01927
1.01328
1.01036
1.01775
0.96728
0.969727
0
0
0
0
0
0
0
0
0
0
0
1.0057
1.00553
0
0
0
0
0
0
0
0
1.01449
1.01467
1.01475
1.01438
1.01424
0.975276
0.961985
0
0
0
1.00497
0.999898
1.00525
1.00813
1.00488
1.00456
1.00778
1.00848
1.00463
1.00506
1.00918
1.00724
1.00435
1.00936
1.01207
1.00757
1.01142
1.01829
1.01538
1.00937
1.01605
1.0194
1.01114
0.967623
0.970605
0
0
0
0.999851
1.00526
1.00733
1.00279
1.00486
1.00955
1.00598
1.00432
1.00793
1.00797
1.0047
1.00623
1.00942
1.00794
1.00743
1.01133
1.01471
1.01259
1.01418
1.01626
1.01386
1.01308
1.01678
0.963582
0.977937
0.972023
0
0
1.00485
1.00867
1.00158
0
0
0
0
0
0
0
1.00505
1.00647
0
0
0
0
0
0
0
1.02041
1.01332
1.00939
1.01781
0.974026
0.964259
0.966783
0.974568
0
0
1.00005
1.00125
0
0
0
0
0
0
1.00653
1.00688
1.00508
0
0
0
0
0
0
1.01408
1.01082
1.01619
1.01872
1.00993
0.973716
0.961014
0.9668
0.978223
0
0
0.996096
1.00292
1.00182
0.990927
0.999168
1.00535
1.00392
1.0035
1.00609
1.00759
1.00597
1.0038
1.00691
1.00977
1.00581
1.01013
1.01637
1.0159
1.00977
1.0149
1.01932
1.01215
0.961589
0.978468
0.972382
0.958973
0
0
0
0.996972
0.998988
0.996392
1.00009
1.00052
1.00418
1.00773
1.00508
1.00388
1.00722
1.00806
1.00414
1.00556
1.0106
1.01352
1.00936
1.0143
1.01943
1.012
1.00765
1.02262
0.967478
0.974914
0.969879
0.963235
0.970717
0
0
0.990961
0.992572
0
0
0
0
0
0
0
1.00481
1.00747
0
0
0
0
0
0
0
1.01482
1.00978
1.01647
0.977689
0.953838
0.965032
0.983718
0.968654
0
0
0.986475
0.982933
0.99325
0.993797
0.986779
0
0
0
0
0
1.00059
1.00534
1.00555
1.00182
0
0
0
0
0
1.02901
1.0045
0.964472
0.966978
0.969561
0.969652
0.969146
0.976515
0.985331
0.989371
0.989071
0.989104
0.987754
0.993754
0.994295
0.99389
0.995289
1.00081
1.00148
1.00028
1.00451
1.00668
1.00177
1.00409
1.01437
1.01002
1.00362
1.0192
1.01199
1.0119
0.958419
0.984727
0.971799
0.957447
0.973089
0.982218
0.980327
0.988058
0.992793
0.987127
0.988006
0.994347
0.992991
0.995489
0.996169
0.997026
1.00262
1.0053
1.00013
1.0016
1.01062
1.0069
1.00093
1.01281
1.01989
1.00768
0.996524
1.03471

VECTORS velocity double
-0.000510846 0.00051793 0
-0.00553081 0.00240405 0
-0.00840348 5.97315e-06 0
-0.00803447 -0.000504762 0
-0.00707885 -9.28891e-05 0
-0.00772674 0.00050202 0
-0.00830007 -9.14272e-05 0
-0.00758542 -0.000378642 0
-0.00733101 0.000190366 0
-0.00799651 0.000256603 0
-0.00802542 -0.000205631 0
-0.00735843 -0.000269204 0
-0.00730408 0.000225615 0
-0.0068789 -0.000503056 0
-0.00610943 -6.61186e-06 0
-0.00644373 0.00020487 0
-0.00649978 -0.000156922 0
-0.00616649 -7.2659e-05 0
-0.00634705 0.000183549 0
-0.00659279 -3.23645e-05 0
-0.00625094 -0.000224531 0
-0.00622963 0.00029437 0
-0.00632756 -0.000327312 0
-0.00421861 -0.00108978 0
-0.00227365 -0.000223898 0
-0.00171294 -4.64264e-05 0
-0.00101166 -0.000575202 0
-4.29923e-05 -2.50076e-05 0
-0.00246453 0.00541752 0
-0.00726814 0.00716733 0
-0.00708626 0.000763078 0
-0.00745435 -0.000643298 0
-0.00841072 -7.14587e-05 0
-0.00776239 0.000492709 0
-0.00718933 -9.34942e-05 0
-0.00790382 -0.000380626 0
-0.00815833 0.000187619 0
-0.00749278 0.000264579 0
-0.00746388 -0.000246466 0
-0.00813089 -0.0003611 0
-0.00735788 -0.000837486 0
-0.00674467 -0.000733312 0
-0.00683272 -0.000444499 0
-0.00628744 0.000222463 0
-0.0062314 -0.000128155 0
-0.00656468 -6.93313e-05 0
-0.00638401 0.000195155 0
-0.00613846 -3.60577e-05 0
-0.00648007 -0.000154922 0
-0.00650159 0.000172318 0
-0.005636 -0.00194866 0
-0.00501592 -0.00278397 0
-0.00423049 -0.00226316 0
-0.00226922 -0.00117962 0
-0.00146733 -0.0015051 0
-0.000551562 -0.000963311 0
-0.000681144 0.00961645 0
-0.00125389 0.00587732 0
0 0 0
0 0 0
0 0 0
0 0 0
0 0 0
0 0 0
0 0 0
0 0 0
0 0 0
0 0 0
-0.000827214 -0.000964553 0
-0.000796559 -0.00116313 0
5.70736e-05 -0.000634054 0
0 0 0
0 0 0
0 0 0
0 0 0
0 0 0
0 0 0
0 0 0
-0.000767506 -0.00123718 0
-0.00245516 -0.0018251 0
-0.0029754 -0.00392712 0
-0.00166874 -0.00211048 0
-0.00108841 -0.00145091 0
-0.000330511 -0.00220094 0
0.00184916 0.00836429 0
0.0019328 0.00712033 0
0 0 0
0 0 0
0 0 0
0 0 0
0 0 0
0 0 0
0 0 0
0 0 0
0 0 0
0 0 0
0 0 0
-0.00065843 -0.00159137 0
-0.000639766 -0.00116469 0
0 0 0
0 0 0
0 0 0
0 0 0
0 0 0
0 0 0
0 0 0
0 0 0
-0.00166384 -0.000305677 0
-0.00391129 -0.00278248 0
-0.00356671 -0.00375097 0
-0.000961175 -0.00391824 0
0.000639999 -0.00195941 0
0.000266994 0.00497499 0
0.000303671 0.0105188 0
0 0 0
0 0 0
0 0 0
-0.000106759 2.61851e-05 0
-0.00181477 0.0011495 0
-0.00207162 -0.00089909 0
-0.0012632 0.000263986 0
-0.00215727 0.000356676 0
-0.00238685 -0.000192804 0
-0.00187937 -0.000111314 0
-0.00203199 0.000127589 0
-0.00242396 -0.000843484 0
-0.003174 -0.00117324 0
-0.00350956 -0.000381543 0
-0.00330735 1.18003e-06 0
-0.0039703 0.00049371 0
-0.00481821 0.000101499 0
-0.00426283 -0.00053892 0
-0.00331553 -0.000117483 0
-0.0041773 0.000805242 0
-0.00555075 0.000540255 0
-0.00394985 -0.000691685 0
-0.00229677 -0.000887171 0
-0.00261804 -0.00513898 0
-0.00256354 -0.00642161 0
-0.000817811 -0.00198474 0
-0.00243227 0.00816236 0
-0.00246577 0.00732277 0
0 0 0
0 0 0
0 0 0
-0.00100758 0.00187356 0
-0.000535467 0.000777977 0
-0.00100718 0.000248534 0
-0.00285738 0.00030743 0
-0.00196271 0.000441998 0
-0.00173344 -0.000211335 0
-0.00224098 -0.00010811 0
-0.00208805 0.000168509 0
-0.00210753 -0.000202253 0
-0.00291006 -0.000187374 0
-0.00353981 -0.000189214 0
-0.00439059 0.000827485 0
-0.00434279 0.000592497 0
-0.00349415 0.000130729 0
-0.00405032 -0.000543667 0
-0.0049967 -8.34232e-05 0
-0.00413593 0.000672116 0
-0.00276154 0.000302163 0
-0.00374098 -0.00102359 0
-0.0025203 -0.00462798 0
0.00103457 -0.00528054 0
-0.000925532 -0.00372841 0
-0.00154716 -0.00562224 0
0.000573127 0.0110987 0
0.000406517 0.00426816 0
-0.00015368 0.000129345 0
0 0 0
0 0 0
0.00111502 0.00172782 0
0.000551395 0.00045038 0
-0.000449868 0.00194441 0
0 0 0
0 0 0
0 0 0
0 0 0
0 0 0
0 0 0
0 0 0
-0.000929513 0.00113425 0
-0.000896678 0.000298054 0
0 0 0
0 0 0
0 0 0
0 0 0
0 0 0
0 0 0
0 0 0
-0.00166389 -0.00668259 0
-0.00298877 -0.00501266 0
2.74679e-05 -0.00379965 0
0.00159734 -0.00555371 0
0.002828 0.00609057 0
0.00357338 0.00918147 0
0.000516921 0.000849556 0
-0.00059206 -0.000642637 0
0 0 0
0 0 0
0.000912906 0.00236294 0
0.00113213 0.00175578 0
0 0 0
0 0 0
0 0 0
0 0 0
0 0 0
0 0 0
-0.000881122 0.00105039 0
-0.000538206 0.000693481 0
0.000386024 -0.000307026 0
0 0 0
0 0 0
0 0 0
0 0 0
0 0 0
0 0 0
-0.00140104 0.00137614 0
-0.00376428 -0.00247315 0
-0.00823022 -0.00361443 0
-0.00592593 -0.0135875 0
0.00036684 -0.0027406 0
-0.00150489 0.00379805 0
0.00105104 0.00912549 0
0.00505453 0.00142219 0
0.00208359 0.00115457 0
0 0 0
0 0 0
0.000885045 0.00131897 0
0.00109706 0.00164336 0
-0.00424764 0.00380002 0
-0.00760669 -0.000199481 0
-0.00564293 -0.00103706 0
-0.00562845 0.000938152 0
-0.00768703 0.000426774 0
-0.00672823 -0.000882786 0
-0.00461982 0.0012843 0
-0.00619898 0.000760106 0
-0.0067352 -0.000784155 0
-0.00534534 0.000105968 0
-0.00712497 0.00114723 0
-0.00812163 -0.000544639 0
-0.00571474 -0.00108197 0
-0.00573768 0.00121915 0
-0.0089153 0.00123921 0
-0.00642739 -0.000338526 0
-0.00399839 0.00201734 0
-0.00966176 -0.000111782 0
-0.0127444 -0.0167294 0
-0.00522505 -0.00969325 0
-0.00126135 0.00806918 0
-0.000253441 0.000386576 0
0.00116427 0.00165965 0
-9.5752e-05 0.00536191 0
0 0 0
0 0 0
0 0 0
-0.00237219 0.00639869 0
-0.00502752 0.00849749 0
-0.00536439 0.000203899 0
-0.00732761 -0.000914168 0
-0.00734278 0.000923359 0
-0.00528331 0.000388722 0
-0.00624311 -0.000967563 0
-0.0074691 0.000171108 0
-0.00513459 0.00104069 0
-0.00539655 0.000256738 0
-0.00803104 0.00035597 0
-0.00649639 0.00123797 0
-0.00550096 -0.000528087 0
-0.0079066 -0.00105676 0
-0.0078848 0.00109148 0
-0.00470616 0.00109133 0
-0.00579402 -0.00199219 0
-0.00703034 0.00170678 0
-0.00161256 -0.00190038 0
-0.00324552 -0.00800993 0
-0.00382821 -0.0234717 0
0.00172914 0.00756609 0
-0.00628974 0.00629213 0
-0.0141996 0.00178811 0
-0.00788365 0.00149824 0
-0.00104387 -0.00163826 0
0 0 0
0 0 0
0.00172936 0.00838505 0
0.00181087 0.00870791 0
0 0 0
0 0 0
0 0 0
0 0 0
0 0 0
0 0 0
0 0 0
0.00049274 0.001188 0
0.000457355 0.000896805 0
0 0 0
0 0 0
0 0 0
0 0 0
0 0 0
0 0 0
0 0 0
-0.00137234 -0.00247253 0
0.00614606 -0.0148163 0
0.00800709 -0.0173772 0
-0.00199749 0.0078093 0
-0.0118848 0.023808 0
-0.0117227 -0.00292451 0
-0.00502294 -0.0067607 0
-0.00275916 -0.00645936 0
0 0 0
0 0 0
-0.00026304 0.00551793 0
0.00374354 0.00641843 0
0.00412242 0.0048051 0
0.00076608 0.000161006 0
0.000170972 0.000180084 0
0 0 0
0 0 0
0 0 0
0 0 0
0 0 0
0.00047432 0.00159934 0
0.000177484 0.000658617 0
-0.00054994 2.6033e-06 0
-0.000308971 -0.000177734 0
0 0 0
0 0 0
0 0 0
0 0 0
0 0 0
-0.000786632 -0.0287801 0
-0.000452297 -0.00588583 0
-0.00636346 0.0201008 0
-0.00932891 0.0188299 0
-0.000865649 -0.00794368 0
0.00497364 -0.0105162 0
-0.00152278 -0.00113803 0
-0.00987297 -0.000578391 0
-0.00507193 -0.00255856 0
-0.000666719 0.0041574 0
-0.00295773 0.00669028 0
-0.000391766 0.0027259 0
0.00462571 0.0010162 0
0.00187436 0.00181064 0
0.00153258 -0.00106235 0
0.00471061 -0.000974499 0
0.00378369 0.00162023 0
0.000735353 0.000428093 0
0.00284623 -0.00160807 0
0.0058992 0.00133282 0
0.0026686 0.00310356 0
0.00116699 -0.00121104 0
0.00650764 -0.00265698 0
0.00627463 0.00241064 0
-6.33944e-05 0.00153853 0
0.00321509 -0.00384437 0
0.00914862 1.52567e-05 0
0.00250481 0.00429444 0
-0.0110524 -0.0174451 0
-0.0080861 -0.0184884 0
0.0232913 0.015111 0
0.0503457 0.00331855 0
0.0490262 -0.00406535 0
0.0353613 -0.00512409 0
0.0341473 0.00402264 0
0.0386956 -0.000685852 0
0.0338952 -0.0026687 0
0.0316933 0.00124119 0
0.0396222 0.00400049 0
0.0421821 -0.00215204 0
0.0405226 0.000854556 0
0.0438673 0.0014721 0
0.0443813 -0.0011449 0
0.0412032 -0.000991143 0
0.0421298 0.00163569 0
0.0451785 0.00034359 0
0.0430674 -0.00174599 0
0.0409219 0.000350167 0
0.0451527 0.00250367 0
0.0473822 -0.00114372 0
0.0418002 -0.00251192 0
0.0417244 0.00254247 0
0.0480626 0.00158915 0
0.044784 -0.00387345 0
0.0388505 0.000102904 0
0.0454942 0.0043296 0
0.0489335 -0.00207581 0
0.0236022 -0.0152888 0

